 Entering Gaussian System, Link 0=g16
 Input=styrene.gjf
 Output=styrene.log
 Initial command:
 /wsu/apps/groups/hbsq/gaussian/b01/SSE4/AMD64/g16/l1.exe "/wsu/home/hd/hd81/hd8136/Gau-4906.inp" -scrdir="/wsu/home/hd/hd81/hd8136/"
 Entering Link 1 = /wsu/apps/groups/hbsq/gaussian/b01/SSE4/AMD64/g16/l1.exe PID=      4907.
  
 Copyright (c) 1988-2017, Gaussian, Inc.  All Rights Reserved.
  
 This is part of the Gaussian(R) 16 program.  It is based on
 the Gaussian(R) 09 system (copyright 2009, Gaussian, Inc.),
 the Gaussian(R) 03 system (copyright 2003, Gaussian, Inc.),
 the Gaussian(R) 98 system (copyright 1998, Gaussian, Inc.),
 the Gaussian(R) 94 system (copyright 1995, Gaussian, Inc.),
 the Gaussian 92(TM) system (copyright 1992, Gaussian, Inc.),
 the Gaussian 90(TM) system (copyright 1990, Gaussian, Inc.),
 the Gaussian 88(TM) system (copyright 1988, Gaussian, Inc.),
 the Gaussian 86(TM) system (copyright 1986, Carnegie Mellon
 University), and the Gaussian 82(TM) system (copyright 1983,
 Carnegie Mellon University). Gaussian is a federally registered
 trademark of Gaussian, Inc.
  
 This software contains proprietary and confidential information,
 including trade secrets, belonging to Gaussian, Inc.
  
 This software is provided under written license and may be
 used, copied, transmitted, or stored only in accord with that
 written license.
  
 The following legend is applicable only to US Government
 contracts under FAR:
  
                    RESTRICTED RIGHTS LEGEND
  
 Use, reproduction and disclosure by the US Government is
 subject to restrictions as set forth in subparagraphs (a)
 and (c) of the Commercial Computer Software - Restricted
 Rights clause in FAR 52.227-19.
  
 Gaussian, Inc.
 340 Quinnipiac St., Bldg. 40, Wallingford CT 06492
  
  
 ---------------------------------------------------------------
 Warning -- This program may not be used in any manner that
 competes with the business of Gaussian, Inc. or will provide
 assistance to any competitor of Gaussian, Inc.  The licensee
 of this program is prohibited from giving any competitor of
 Gaussian, Inc. access to this program.  By using this program,
 the user acknowledges that Gaussian, Inc. is engaged in the
 business of creating and licensing software in the field of
 computational chemistry and represents and warrants to the
 licensee that it is not a competitor of Gaussian, Inc. and that
 it will not use this program in any manner prohibited above.
 ---------------------------------------------------------------
  

 Cite this work as:
 Gaussian 16, Revision B.01,
 M. J. Frisch, G. W. Trucks, H. B. Schlegel, G. E. Scuseria, 
 M. A. Robb, J. R. Cheeseman, G. Scalmani, V. Barone, 
 G. A. Petersson, H. Nakatsuji, X. Li, M. Caricato, A. V. Marenich, 
 J. Bloino, B. G. Janesko, R. Gomperts, B. Mennucci, H. P. Hratchian, 
 J. V. Ortiz, A. F. Izmaylov, J. L. Sonnenberg, D. Williams-Young, 
 F. Ding, F. Lipparini, F. Egidi, J. Goings, B. Peng, A. Petrone, 
 T. Henderson, D. Ranasinghe, V. G. Zakrzewski, J. Gao, N. Rega, 
 G. Zheng, W. Liang, M. Hada, M. Ehara, K. Toyota, R. Fukuda, 
 J. Hasegawa, M. Ishida, T. Nakajima, Y. Honda, O. Kitao, H. Nakai, 
 T. Vreven, K. Throssell, J. A. Montgomery, Jr., J. E. Peralta, 
 F. Ogliaro, M. J. Bearpark, J. J. Heyd, E. N. Brothers, K. N. Kudin, 
 V. N. Staroverov, T. A. Keith, R. Kobayashi, J. Normand, 
 K. Raghavachari, A. P. Rendell, J. C. Burant, S. S. Iyengar, 
 J. Tomasi, M. Cossi, J. M. Millam, M. Klene, C. Adamo, R. Cammi, 
 J. W. Ochterski, R. L. Martin, K. Morokuma, O. Farkas, 
 J. B. Foresman, and D. J. Fox, Gaussian, Inc., Wallingford CT, 2016.
 
 ******************************************
 Gaussian 16:  ES64L-G16RevB.01 20-Dec-2017
                 8-Feb-2025 
 ******************************************
 %chk=styrene.chk
 -------------------------------------
 # opt freq hf/3-21g geom=connectivity
 -------------------------------------
 1/18=20,19=15,38=1,57=2/1,3;
 2/9=110,12=2,17=6,18=5,40=1/2;
 3/5=5,11=9,25=1,30=1,71=1/1,2,3;
 4//1;
 5/5=2,38=5/2;
 6/7=2,8=2,9=2,10=2,28=1/1;
 7//1,2,3,16;
 1/18=20,19=15/3(2);
 2/9=110/2;
 99//99;
 2/9=110/2;
 3/5=5,11=9,25=1,30=1,71=1/1,2,3;
 4/5=5,16=3,69=1/1;
 5/5=2,38=5/2;
 7//1,2,3,16;
 1/18=20,19=15/3(-5);
 2/9=110/2;
 6/7=2,8=2,9=2,10=2,19=2,28=1/1;
 99/9=1/99;
 ----------------
 styrene opt freq
 ----------------
 Symbolic Z-matrix:
 Charge =  0 Multiplicity = 1
 C                     0.01813  -1.78614   1.19734 
 C                     1.41329  -1.78614   1.19734 
 C                     2.11082  -0.57839   1.19734 
 C                     1.41317   0.63012   1.19614 
 C                     0.01835   0.63004   1.19566 
 C                    -0.67926  -0.57817   1.19666 
 H                    -0.53163  -2.73846   1.19779 
 H                     1.96279  -2.73865   1.19866 
 H                     3.2105   -0.57831   1.19798 
 H                     1.96337   1.58226   1.19608 
 H                    -1.77886  -0.57798   1.19648 
 C                    -0.75199   1.96352   1.19433 
 C                    -1.42989   3.13699   1.19316 
 H                    -1.96513   4.0635    1.19223 
 H                    -0.05175   2.36875   1.89458 
 H                    -1.45224   1.5583    0.49408 
 

 GradGradGradGradGradGradGradGradGradGradGradGradGradGradGradGradGradGrad
 Berny optimization.
 Initialization pass.
                           ----------------------------
                           !    Initial Parameters    !
                           ! (Angstroms and Degrees)  !
 --------------------------                            --------------------------
 ! Name  Definition              Value          Derivative Info.                !
 --------------------------------------------------------------------------------
 ! R1    R(1,2)                  1.3952         estimate D2E/DX2                !
 ! R2    R(1,6)                  1.3948         estimate D2E/DX2                !
 ! R3    R(1,7)                  1.0996         estimate D2E/DX2                !
 ! R4    R(2,3)                  1.3947         estimate D2E/DX2                !
 ! R5    R(2,8)                  1.0997         estimate D2E/DX2                !
 ! R6    R(3,4)                  1.3954         estimate D2E/DX2                !
 ! R7    R(3,9)                  1.0997         estimate D2E/DX2                !
 ! R8    R(4,5)                  1.3948         estimate D2E/DX2                !
 ! R9    R(4,10)                 1.0997         estimate D2E/DX2                !
 ! R10   R(5,6)                  1.3951         estimate D2E/DX2                !
 ! R11   R(5,12)                 1.54           estimate D2E/DX2                !
 ! R12   R(6,11)                 1.0996         estimate D2E/DX2                !
 ! R13   R(12,13)                1.3552         estimate D2E/DX2                !
 ! R14   R(12,15)                1.07           estimate D2E/DX2                !
 ! R15   R(12,16)                1.07           estimate D2E/DX2                !
 ! R16   R(13,14)                1.07           estimate D2E/DX2                !
 ! A1    A(2,1,6)              119.9985         estimate D2E/DX2                !
 ! A2    A(2,1,7)              119.9972         estimate D2E/DX2                !
 ! A3    A(6,1,7)              120.0043         estimate D2E/DX2                !
 ! A4    A(1,2,3)              120.0086         estimate D2E/DX2                !
 ! A5    A(1,2,8)              119.9808         estimate D2E/DX2                !
 ! A6    A(3,2,8)              120.0106         estimate D2E/DX2                !
 ! A7    A(2,3,4)              119.9942         estimate D2E/DX2                !
 ! A8    A(2,3,9)              120.0128         estimate D2E/DX2                !
 ! A9    A(4,3,9)              119.993          estimate D2E/DX2                !
 ! A10   A(3,4,5)              119.994          estimate D2E/DX2                !
 ! A11   A(3,4,10)             119.9811         estimate D2E/DX2                !
 ! A12   A(5,4,10)             120.0249         estimate D2E/DX2                !
 ! A13   A(4,5,6)              120.0047         estimate D2E/DX2                !
 ! A14   A(4,5,12)             120.0113         estimate D2E/DX2                !
 ! A15   A(6,5,12)             119.984          estimate D2E/DX2                !
 ! A16   A(1,6,5)              120.0            estimate D2E/DX2                !
 ! A17   A(1,6,11)             120.008          estimate D2E/DX2                !
 ! A18   A(5,6,11)             119.992          estimate D2E/DX2                !
 ! A19   A(5,12,15)             90.0            estimate D2E/DX2                !
 ! A20   A(5,12,16)             90.0            estimate D2E/DX2                !
 ! A21   A(13,12,15)            90.0            estimate D2E/DX2                !
 ! A22   A(13,12,16)            90.0            estimate D2E/DX2                !
 ! A23   L(5,12,13,16,-1)      180.0            estimate D2E/DX2                !
 ! A24   L(15,12,16,13,-1)     180.0            estimate D2E/DX2                !
 ! A25   L(12,13,14,15,-1)     180.0            estimate D2E/DX2                !
 ! A26   L(5,12,13,16,-2)      180.0            estimate D2E/DX2                !
 ! A27   L(15,12,16,13,-2)     180.0            estimate D2E/DX2                !
 ! A28   L(12,13,14,15,-2)     180.0            estimate D2E/DX2                !
 ! D1    D(6,1,2,3)              0.0323         estimate D2E/DX2                !
 ! D2    D(6,1,2,8)            179.9532         estimate D2E/DX2                !
 ! D3    D(7,1,2,3)           -179.9729         estimate D2E/DX2                !
 ! D4    D(7,1,2,8)             -0.052          estimate D2E/DX2                !
 ! D5    D(2,1,6,5)              0.0149         estimate D2E/DX2                !
 ! D6    D(2,1,6,11)           179.9892         estimate D2E/DX2                !
 ! D7    D(7,1,6,5)           -179.9798         estimate D2E/DX2                !
 ! D8    D(7,1,6,11)            -0.0056         estimate D2E/DX2                !
 ! D9    D(1,2,3,4)             -0.0568         estimate D2E/DX2                !
 ! D10   D(1,2,3,9)            179.9619         estimate D2E/DX2                !
 ! D11   D(8,2,3,4)           -179.9777         estimate D2E/DX2                !
 ! D12   D(8,2,3,9)              0.041          estimate D2E/DX2                !
 ! D13   D(2,3,4,5)              0.0341         estimate D2E/DX2                !
 ! D14   D(2,3,4,10)          -179.9964         estimate D2E/DX2                !
 ! D15   D(9,3,4,5)           -179.9846         estimate D2E/DX2                !
 ! D16   D(9,3,4,10)            -0.0151         estimate D2E/DX2                !
 ! D17   D(3,4,5,6)              0.0131         estimate D2E/DX2                !
 ! D18   D(3,4,5,12)          -179.9995         estimate D2E/DX2                !
 ! D19   D(10,4,5,6)          -179.9563         estimate D2E/DX2                !
 ! D20   D(10,4,5,12)            0.0311         estimate D2E/DX2                !
 ! D21   D(4,5,6,1)             -0.0376         estimate D2E/DX2                !
 ! D22   D(4,5,6,11)           179.9881         estimate D2E/DX2                !
 ! D23   D(12,5,6,1)           179.975          estimate D2E/DX2                !
 ! D24   D(12,5,6,11)            0.0007         estimate D2E/DX2                !
 ! D25   D(4,5,12,15)          -40.8829         estimate D2E/DX2                !
 ! D26   D(4,5,12,16)          139.1171         estimate D2E/DX2                !
 ! D27   D(6,5,12,15)          139.1045         estimate D2E/DX2                !
 ! D28   D(6,5,12,16)          -40.8955         estimate D2E/DX2                !
 --------------------------------------------------------------------------------
 Trust Radius=3.00D-01 FncErr=1.00D-07 GrdErr=1.00D-07 EigMax=2.50D+02 EigMin=1.00D-04
 Number of steps in this run=     82 maximum allowed number of steps=    100.
 GradGradGradGradGradGradGradGradGradGradGradGradGradGradGradGradGradGrad

                          Input orientation:                          
 ---------------------------------------------------------------------
 Center     Atomic      Atomic             Coordinates (Angstroms)
 Number     Number       Type             X           Y           Z
 ---------------------------------------------------------------------
      1          6           0        0.018126   -1.786141    1.197343
      2          6           0        1.413286   -1.786141    1.197343
      3          6           0        2.110824   -0.578390    1.197343
      4          6           0        1.413170    0.630119    1.196144
      5          6           0        0.018345    0.630041    1.195665
      6          6           0       -0.679256   -0.578165    1.196661
      7          1           0       -0.531633   -2.738458    1.197793
      8          1           0        1.962794   -2.738654    1.198658
      9          1           0        3.210504   -0.578310    1.197977
     10          1           0        1.963370    1.582262    1.196085
     11          1           0       -1.778860   -0.577982    1.196481
     12          6           0       -0.751993    1.963524    1.194330
     13          6           0       -1.429890    3.136989    1.193156
     14          1           0       -1.965125    4.063500    1.192229
     15          1           0       -0.051746    2.368750    1.894577
     16          1           0       -1.452240    1.558298    0.494083
 ---------------------------------------------------------------------
                    Distance matrix (angstroms):
                    1          2          3          4          5
     1  C    0.000000
     2  C    1.395160   0.000000
     3  C    2.416205   1.394712   0.000000
     4  C    2.790065   2.416260   1.395427   0.000000
     5  C    2.416183   2.789946   2.416356   1.394825   0.000000
     6  C    1.394829   2.416183   2.790080   2.416236   1.395138
     7  H    1.099610   2.165553   3.412986   3.889675   3.413102
     8  H    2.165414   1.099655   2.165330   3.413316   3.889601
     9  H    3.413229   2.165375   1.099680   2.165806   3.413209
    10  H    3.889745   3.413024   2.165678   1.099680   2.165606
    11  H    2.165365   3.413128   3.889684   3.412999   2.165471
    12  C    3.827934   4.329946   3.828454   2.542814   1.540000
    13  C    5.131665   5.685146   5.132321   3.790436   2.895200
    14  H    6.176700   6.755146   6.177422   4.816742   3.965200
    15  H    4.213566   4.460445   3.721354   2.378366   1.875233
    16  H    3.720461   4.459943   4.213720   3.092731   1.875233
                    6          7          8          9         10
     6  C    0.000000
     7  H    2.165331   0.000000
     8  H    3.412938   2.494427   0.000000
     9  H    3.889760   4.320860   2.494768   0.000000
    10  H    3.413344   4.989355   4.320917   2.494678   0.000000
    11  H    1.099604   2.494641   4.320704   4.989364   4.320988
    12  C    2.542731   4.707144   5.429601   4.707687   2.741999
    13  C    3.790229   5.943717   6.784801   5.944471   3.732480
    14  H    4.816486   6.951372   7.854801   6.952236   4.646465
    15  H    3.092760   5.176811   5.534279   4.451145   2.273136
    16  H    2.378150   4.450263   5.533777   5.177040   3.487087
                   11         12         13         14         15
    11  H    0.000000
    12  C    2.741115   0.000000
    13  C    3.731327   1.355200   0.000000
    14  H    4.645220   2.425200   1.070000   0.000000
    15  H    3.486186   1.070000   1.726693   2.650754   0.000000
    16  H    2.272386   1.070000   1.726693   2.650754   2.140000
                   16
    16  H    0.000000
 Stoichiometry    C8H8
 Framework group  C1[X(C8H8)]
 Deg. of freedom    42
 Full point group                 C1      NOp   1
 Largest Abelian subgroup         C1      NOp   1
 Largest concise Abelian subgroup C1      NOp   1
                         Standard orientation:                         
 ---------------------------------------------------------------------
 Center     Atomic      Atomic             Coordinates (Angstroms)
 Number     Number       Type             X           Y           Z
 ---------------------------------------------------------------------
      1          6           0        1.627315    1.208018   -0.025281
      2          6           0        2.325067    0.000149    0.000500
      3          6           0        1.628066   -1.207660    0.025171
      4          6           0        0.232639   -1.207926    0.025265
      5          6           0       -0.464879   -0.000298   -0.000032
      6          6           0        0.232486    1.207772   -0.025704
      7          1           0        2.177030    2.160153   -0.045179
      8          1           0        3.424722    0.000665    0.000049
      9          1           0        2.177973   -2.159769    0.044859
     10          1           0       -0.316705   -2.160364    0.044778
     11          1           0       -0.317611    2.159674   -0.045842
     12          6           0       -2.004879   -0.000125    0.000073
     13          6           0       -3.360079    0.000027    0.000166
     14          1           0       -4.430079    0.000147    0.000240
     15          1           0       -2.005018   -0.823615   -0.683128
     16          1           0       -2.004739    0.823365    0.683275
 ---------------------------------------------------------------------
 Rotational constants (GHZ):           5.5425505           1.3789955           1.1089751
 Standard basis: 3-21G (6D, 7F)
 There are    88 symmetry adapted cartesian basis functions of A   symmetry.
 There are    88 symmetry adapted basis functions of A   symmetry.
    88 basis functions,   144 primitive gaussians,    88 cartesian basis functions
    28 alpha electrons       28 beta electrons
       nuclear repulsion energy       317.1679823726 Hartrees.
 NAtoms=   16 NActive=   16 NUniq=   16 SFac= 1.00D+00 NAtFMM=   60 NAOKFM=F Big=F
 Integral buffers will be    131072 words long.
 Raffenetti 1 integral format.
 Two-electron integral symmetry is turned on.
 One-electron integrals computed using PRISM.
 NBasis=    88 RedAO= T EigKep=  1.56D-03  NBF=    88
 NBsUse=    88 1.00D-06 EigRej= -1.00D+00 NBFU=    88
 ExpMin= 1.83D-01 ExpMax= 1.72D+02 ExpMxC= 1.72D+02 IAcc=3 IRadAn=         5 AccDes= 0.00D+00
 Harris functional with IExCor=  205 and IRadAn=       5 diagonalized for initial guess.
 HarFok:  IExCor=  205 AccDes= 0.00D+00 IRadAn=         5 IDoV= 1 UseB2=F ITyADJ=14
 ICtDFT=  3500011 ScaDFX=  1.000000  1.000000  1.000000  1.000000
 FoFCou: FMM=F IPFlag=           0 FMFlag=      100000 FMFlg1=           0
         NFxFlg=           0 DoJE=T BraDBF=F KetDBF=T FulRan=T
         wScrn=  0.000000 ICntrl=       500 IOpCl=  0 I1Cent=   200000004 NGrid=           0
         NMat0=    1 NMatS0=      1 NMatT0=    0 NMatD0=    1 NMtDS0=    0 NMtDT0=    0
 Petite list used in FoFCou.
 Keep R1 ints in memory in canonical form, NReq=8510554.
 Requested convergence on RMS density matrix=1.00D-08 within 128 cycles.
 Requested convergence on MAX density matrix=1.00D-06.
 Requested convergence on             energy=1.00D-06.
 No special actions if energy rises.
 SCF Done:  E(RHF) =  -305.445091798     A.U. after   21 cycles
            NFock= 21  Conv=0.52D-08     -V/T= 2.0023

 **********************************************************************

            Population analysis using the SCF Density.

 **********************************************************************

 Orbital symmetries:
       Occupied  (A) (A) (A) (A) (A) (A) (A) (A) (A) (A) (A) (A)
                 (A) (A) (A) (A) (A) (A) (A) (A) (A) (A) (A) (A)
                 (A) (A) (A) (A)
       Virtual   (A) (A) (A) (A) (A) (A) (A) (A) (A) (A) (A) (A)
                 (A) (A) (A) (A) (A) (A) (A) (A) (A) (A) (A) (A)
                 (A) (A) (A) (A) (A) (A) (A) (A) (A) (A) (A) (A)
                 (A) (A) (A) (A) (A) (A) (A) (A) (A) (A) (A) (A)
                 (A) (A) (A) (A) (A) (A) (A) (A) (A) (A) (A) (A)
 The electronic state is 1-A.
 Alpha  occ. eigenvalues --  -11.27401 -11.20598 -11.20592 -11.20473 -11.20458
 Alpha  occ. eigenvalues --  -11.19785 -11.16033 -11.11785  -1.18799  -1.08954
 Alpha  occ. eigenvalues --   -1.03703  -1.00087  -0.85604  -0.84554  -0.75276
 Alpha  occ. eigenvalues --   -0.70916  -0.69116  -0.63986  -0.63835  -0.60857
 Alpha  occ. eigenvalues --   -0.59853  -0.53404  -0.51984  -0.51382  -0.40504
 Alpha  occ. eigenvalues --   -0.36162  -0.32508  -0.20027
 Alpha virt. eigenvalues --    0.07736   0.11645   0.13157   0.23404   0.24814
 Alpha virt. eigenvalues --    0.29209   0.30440   0.32119   0.34022   0.35151
 Alpha virt. eigenvalues --    0.35338   0.40645   0.41858   0.47912   0.48884
 Alpha virt. eigenvalues --    0.51997   0.53851   0.73159   0.76249   0.79863
 Alpha virt. eigenvalues --    0.90032   0.92706   0.93437   0.99000   0.99566
 Alpha virt. eigenvalues --    1.01965   1.03270   1.05186   1.07013   1.07020
 Alpha virt. eigenvalues --    1.08865   1.09641   1.10420   1.13664   1.17353
 Alpha virt. eigenvalues --    1.21930   1.22034   1.24722   1.27247   1.28493
 Alpha virt. eigenvalues --    1.32900   1.34672   1.37287   1.38414   1.38612
 Alpha virt. eigenvalues --    1.47706   1.51613   1.54942   1.61543   1.65134
 Alpha virt. eigenvalues --    1.70440   1.73902   1.76690   1.79233   1.81005
 Alpha virt. eigenvalues --    1.97689   2.12710   2.16038   2.19715   2.72958
          Condensed to atoms (all electrons):
               1          2          3          4          5          6
     1  C    5.158371   0.472233  -0.112183   0.001085  -0.109823   0.462736
     2  C    0.472233   5.186750   0.472470  -0.112858   0.002988  -0.112855
     3  C   -0.112183   0.472470   5.158274   0.462546  -0.109786   0.001095
     4  C    0.001085  -0.112858   0.462546   5.273234   0.450452  -0.094204
     5  C   -0.109823   0.002988  -0.109786   0.450452   5.033997   0.450238
     6  C    0.462736  -0.112855   0.001095  -0.094204   0.450238   5.273199
     7  H    0.391929  -0.029365   0.002064  -0.000044   0.001998  -0.029032
     8  H   -0.030350   0.394479  -0.030329   0.002279  -0.000082   0.002281
     9  H    0.002066  -0.029378   0.391919  -0.029010   0.001994  -0.000044
    10  H   -0.000059   0.001892  -0.023629   0.396674  -0.035657   0.001860
    11  H   -0.023620   0.001892  -0.000059   0.001861  -0.035681   0.396684
    12  C    0.003449   0.000196   0.003448  -0.096563   0.229805  -0.096596
    13  C   -0.000014   0.000002  -0.000014   0.001521  -0.013195   0.001523
    14  H    0.000000   0.000000   0.000000  -0.000022   0.000634  -0.000022
    15  H   -0.000055  -0.000009   0.000558  -0.013916   0.010863   0.001936
    16  H    0.000560  -0.000009  -0.000055   0.001943   0.010851  -0.013947
               7          8          9         10         11         12
     1  C    0.391929  -0.030350   0.002066  -0.000059  -0.023620   0.003449
     2  C   -0.029365   0.394479  -0.029378   0.001892   0.001892   0.000196
     3  C    0.002064  -0.030329   0.391919  -0.023629  -0.000059   0.003448
     4  C   -0.000044   0.002279  -0.029010   0.396674   0.001861  -0.096563
     5  C    0.001998  -0.000082   0.001994  -0.035657  -0.035681   0.229805
     6  C   -0.029032   0.002281  -0.000044   0.001860   0.396684  -0.096596
     7  H    0.412239  -0.001188  -0.000032   0.000001  -0.001198  -0.000057
     8  H   -0.001188   0.418376  -0.001190  -0.000029  -0.000029   0.000001
     9  H   -0.000032  -0.001190   0.412251  -0.001195   0.000001  -0.000057
    10  H    0.000001  -0.000029  -0.001195   0.405530  -0.000032  -0.000720
    11  H   -0.001198  -0.000029   0.000001  -0.000032   0.405496  -0.000717
    12  C   -0.000057   0.000001  -0.000057  -0.000720  -0.000717   6.324580
    13  C   -0.000000  -0.000000  -0.000000   0.000115   0.000116   0.320294
    14  H   -0.000000   0.000000  -0.000000  -0.000003  -0.000003  -0.031357
    15  H   -0.000000   0.000000  -0.000008   0.001030  -0.000063   0.282337
    16  H   -0.000009   0.000000  -0.000000  -0.000063   0.001032   0.282473
              13         14         15         16
     1  C   -0.000014   0.000000  -0.000055   0.000560
     2  C    0.000002   0.000000  -0.000009  -0.000009
     3  C   -0.000014   0.000000   0.000558  -0.000055
     4  C    0.001521  -0.000022  -0.013916   0.001943
     5  C   -0.013195   0.000634   0.010863   0.010851
     6  C    0.001523  -0.000022   0.001936  -0.013947
     7  H   -0.000000  -0.000000  -0.000000  -0.000009
     8  H   -0.000000   0.000000   0.000000   0.000000
     9  H   -0.000000  -0.000000  -0.000008  -0.000000
    10  H    0.000115  -0.000003   0.001030  -0.000063
    11  H    0.000116  -0.000003  -0.000063   0.001032
    12  C    0.320294  -0.031357   0.282337   0.282473
    13  C    5.772561   0.369016  -0.032987  -0.033175
    14  H    0.369016   0.348934  -0.000215  -0.000215
    15  H   -0.032987  -0.000215   0.209273  -0.005662
    16  H   -0.033175  -0.000215  -0.005662   0.209426
 Mulliken charges:
               1
     1  C   -0.216326
     2  C   -0.248428
     3  C   -0.216319
     4  C   -0.244978
     5  C    0.110403
     6  C   -0.244853
     7  H    0.252693
     8  H    0.245780
     9  H    0.252683
    10  H    0.254283
    11  H    0.254319
    12  C   -1.220517
    13  C   -0.385762
    14  H    0.313253
    15  H    0.546919
    16  H    0.546850
 Sum of Mulliken charges =  -0.00000
 Mulliken charges with hydrogens summed into heavy atoms:
               1
     1  C    0.036367
     2  C   -0.002647
     3  C    0.036364
     4  C    0.009306
     5  C    0.110403
     6  C    0.009466
    12  C   -0.126749
    13  C   -0.072509
 Electronic spatial extent (au):  <R**2>=           1051.0418
 Charge=             -0.0000 electrons
 Dipole moment (field-independent basis, Debye):
    X=              3.3006    Y=             -0.0002    Z=             -0.0016  Tot=              3.3006
 Quadrupole moment (field-independent basis, Debye-Ang):
   XX=            -53.5767   YY=            -42.2475   ZZ=            -54.1478
   XY=              0.0011   XZ=              0.0000   YZ=              1.3135
 Traceless Quadrupole moment (field-independent basis, Debye-Ang):
   XX=             -3.5860   YY=              7.7431   ZZ=             -4.1572
   XY=              0.0011   XZ=              0.0000   YZ=              1.3135
 Octapole moment (field-independent basis, Debye-Ang**2):
  XXX=             47.8507  YYY=             -0.0055  ZZZ=             -0.0019  XYY=              9.1425
  XXY=              0.0050  XXZ=             -0.0072  XZZ=             -0.0531  YZZ=              0.0011
  YYZ=             -0.0071  XYZ=             -1.5892
 Hexadecapole moment (field-independent basis, Debye-Ang**3):
 XXXX=          -1085.8433 YYYY=           -269.4683 ZZZZ=            -61.4909 XXXY=              0.0015
 XXXZ=             -0.0204 YYYX=             -0.0020 YYYZ=              1.3539 ZZZX=             -0.0001
 ZZZY=              2.5137 XXYY=           -232.9808 XXZZ=           -223.1353 YYZZ=            -67.6051
 XXYZ=             -4.9450 YYXZ=              0.0018 ZZXY=              0.0029
 N-N= 3.171679823726D+02 E-N=-1.343782442085D+03  KE= 3.047290416289D+02
 Calling FoFJK, ICntrl=      2127 FMM=F ISym2X=0 I1Cent= 0 IOpClX= 0 NMat=1 NMatS=1 NMatT=0.
 ***** Axes restored to original set *****
 -------------------------------------------------------------------
 Center     Atomic                   Forces (Hartrees/Bohr)
 Number     Number              X              Y              Z
 -------------------------------------------------------------------
      1        6          -0.001264596   -0.002982450    0.000881089
      2        6           0.006000288   -0.010724827    0.000173695
      3        6           0.003181043   -0.000014844   -0.000994493
      4        6           0.013614632    0.006401735   -0.001146374
      5        6           0.010088931   -0.017535349    0.000060745
      6        6          -0.012415189   -0.008244047    0.001144675
      7        1           0.009138818    0.017942788   -0.000246525
      8        1          -0.009961677    0.017314770   -0.000069346
      9        1          -0.020156053    0.001051819    0.000231478
     10        1          -0.010588237   -0.017538915   -0.000871166
     11        1           0.020431386    0.000345599    0.000866121
     12        6           0.008826112   -0.015373467   -0.000032482
     13        6          -0.036979800    0.064076640   -0.000035647
     14        1           0.008996817   -0.015559764    0.000022439
     15        1           0.011147148   -0.006308529    0.010413696
     16        1          -0.000059621   -0.012851158   -0.010397905
 -------------------------------------------------------------------
 Cartesian Forces:  Max     0.064076640 RMS     0.014245580

 GradGradGradGradGradGradGradGradGradGradGradGradGradGradGradGradGradGrad
 Berny optimization.
 FormGI is forming the generalized inverse of G from B-inverse, IUseBI=4.
 Internal  Forces:  Max     0.056008321 RMS     0.009924132
 Search for a local minimum.
 Step number   1 out of a maximum of   82
 All quantities printed in internal units (Hartrees-Bohrs-Radians)
 Mixed Optimization -- RFO/linear search
 Second derivative matrix not updated -- first step.
 ITU=  0
     Eigenvalues ---    0.00237   0.00368   0.00499   0.00499   0.01565
     Eigenvalues ---    0.02152   0.02153   0.02154   0.02155   0.02155
     Eigenvalues ---    0.02155   0.02156   0.02157   0.02681   0.08250
     Eigenvalues ---    0.09341   0.16000   0.16000   0.16000   0.16000
     Eigenvalues ---    0.16000   0.16000   0.22000   0.22000   0.23486
     Eigenvalues ---    0.25000   0.28519   0.33718   0.33718   0.33720
     Eigenvalues ---    0.33725   0.33726   0.37230   0.37230   0.37230
     Eigenvalues ---    0.42107   0.42314   0.46412   0.46453   0.46466
     Eigenvalues ---    0.46497   0.53930
 RFO step:  Lambda=-2.01984367D-02 EMin= 2.36824195D-03
 Linear search not attempted -- first point.
 Iteration  1 RMS(Cart)=  0.06231518 RMS(Int)=  0.00437352
 Iteration  2 RMS(Cart)=  0.00442873 RMS(Int)=  0.00001750
 Iteration  3 RMS(Cart)=  0.00001335 RMS(Int)=  0.00001384
 Iteration  4 RMS(Cart)=  0.00000000 RMS(Int)=  0.00001384
 Variable       Old X    -DE/DX   Delta X   Delta X   Delta X     New X
                                 (Linear)    (Quad)   (Total)
    R1        2.63647  -0.01202   0.00000  -0.02536  -0.02535   2.61112
    R2        2.63584  -0.01291   0.00000  -0.02660  -0.02660   2.60925
    R3        2.07796  -0.02011   0.00000  -0.05626  -0.05626   2.02171
    R4        2.63562  -0.01186   0.00000  -0.02500  -0.02499   2.61064
    R5        2.07805  -0.01998   0.00000  -0.05589  -0.05589   2.02216
    R6        2.63697  -0.01319   0.00000  -0.02725  -0.02725   2.60973
    R7        2.07809  -0.02016   0.00000  -0.05640  -0.05640   2.02169
    R8        2.63584  -0.00589   0.00000  -0.01160  -0.01160   2.62423
    R9        2.07809  -0.02048   0.00000  -0.05732  -0.05732   2.02078
   R10        2.63643  -0.00593   0.00000  -0.01167  -0.01168   2.62475
   R11        2.91018   0.01614   0.00000   0.05287   0.05287   2.96305
   R12        2.07795  -0.02043   0.00000  -0.05716  -0.05716   2.02079
   R13        2.56096   0.05601   0.00000   0.10011   0.10011   2.66106
   R14        2.02201   0.01172   0.00000   0.02986   0.02986   2.05187
   R15        2.02201   0.01171   0.00000   0.02984   0.02984   2.05184
   R16        2.02201  -0.01797   0.00000  -0.04579  -0.04579   1.97621
    A1        2.09437   0.00294   0.00000   0.01100   0.01101   2.10538
    A2        2.09435  -0.00037   0.00000   0.00059   0.00058   2.09492
    A3        2.09447  -0.00257   0.00000  -0.01159  -0.01160   2.08287
    A4        2.09455  -0.00208   0.00000  -0.01107  -0.01105   2.08350
    A5        2.09406   0.00107   0.00000   0.00567   0.00566   2.09972
    A6        2.09458   0.00102   0.00000   0.00540   0.00539   2.09997
    A7        2.09429   0.00298   0.00000   0.01111   0.01112   2.10542
    A8        2.09462  -0.00040   0.00000   0.00052   0.00051   2.09512
    A9        2.09427  -0.00259   0.00000  -0.01163  -0.01164   2.08263
   A10        2.09429  -0.00073   0.00000  -0.00209  -0.00212   2.09217
   A11        2.09407   0.00077   0.00000   0.00331   0.00329   2.09735
   A12        2.09483  -0.00004   0.00000  -0.00122  -0.00124   2.09358
   A13        2.09448  -0.00234   0.00000  -0.00678  -0.00680   2.08768
   A14        2.09459   0.00113   0.00000   0.00326   0.00327   2.09786
   A15        2.09411   0.00121   0.00000   0.00352   0.00353   2.09765
   A16        2.09440  -0.00077   0.00000  -0.00217  -0.00220   2.09219
   A17        2.09453   0.00075   0.00000   0.00310   0.00307   2.09761
   A18        2.09426   0.00002   0.00000  -0.00092  -0.00095   2.09331
   A19        1.57080  -0.00560   0.00000  -0.05461  -0.05461   1.51618
   A20        1.57080  -0.00559   0.00000  -0.05435  -0.05435   1.51645
   A21        1.57080   0.00555   0.00000   0.05412   0.05412   1.62492
   A22        1.57080   0.00564   0.00000   0.05484   0.05484   1.62564
   A23        3.14159   0.00006   0.00000   0.00049   0.00049   3.14209
   A24        3.14159   0.01119   0.00000   0.10896   0.10896   3.25056
   A25        3.14159  -0.00002   0.00000  -0.00079  -0.00079   3.14081
   A26        3.14159  -0.00000   0.00000  -0.00010  -0.00010   3.14149
   A27        3.14159  -0.00001   0.00000  -0.00028  -0.00028   3.14131
   A28        3.14159   0.00000   0.00000   0.00003   0.00003   3.14162
    D1        0.00056   0.00013   0.00000   0.00321   0.00323   0.00379
    D2        3.14078   0.00018   0.00000   0.00426   0.00428  -3.13813
    D3       -3.14112  -0.00006   0.00000  -0.00152  -0.00153   3.14054
    D4       -0.00091  -0.00002   0.00000  -0.00047  -0.00048  -0.00138
    D5        0.00026  -0.00032   0.00000  -0.00756  -0.00757  -0.00731
    D6        3.14140   0.00027   0.00000   0.00636   0.00636  -3.13542
    D7       -3.14124  -0.00012   0.00000  -0.00283  -0.00284   3.13910
    D8       -0.00010   0.00046   0.00000   0.01109   0.01109   0.01099
    D9       -0.00099   0.00019   0.00000   0.00455   0.00457   0.00358
   D10        3.14093  -0.00002   0.00000  -0.00058  -0.00059   3.14034
   D11       -3.14120   0.00015   0.00000   0.00349   0.00352  -3.13769
   D12        0.00072  -0.00007   0.00000  -0.00164  -0.00164  -0.00093
   D13        0.00060  -0.00033   0.00000  -0.00795  -0.00796  -0.00737
   D14       -3.14153   0.00025   0.00000   0.00599   0.00599  -3.13554
   D15       -3.14132  -0.00012   0.00000  -0.00282  -0.00284   3.13903
   D16       -0.00026   0.00046   0.00000   0.01112   0.01112   0.01085
   D17        0.00023   0.00015   0.00000   0.00361   0.00357   0.00380
   D18       -3.14158   0.00016   0.00000   0.00382   0.00379  -3.13780
   D19       -3.14083  -0.00043   0.00000  -0.01035  -0.01035   3.13200
   D20        0.00054  -0.00042   0.00000  -0.01013  -0.01014  -0.00960
   D21       -0.00066   0.00017   0.00000   0.00416   0.00412   0.00347
   D22        3.14138  -0.00041   0.00000  -0.00977  -0.00977   3.13162
   D23        3.14116   0.00017   0.00000   0.00394   0.00391  -3.13812
   D24        0.00001  -0.00042   0.00000  -0.00998  -0.00998  -0.00997
   D25       -0.71354  -0.00366   0.00000  -0.16222  -0.16222  -0.87576
   D26        2.42805  -0.00367   0.00000  -0.16251  -0.16251   2.26554
   D27        2.42783  -0.00365   0.00000  -0.16201  -0.16201   2.26582
   D28       -0.71376  -0.00366   0.00000  -0.16230  -0.16230  -0.87606
         Item               Value     Threshold  Converged?
 Maximum Force            0.056008     0.000450     NO 
 RMS     Force            0.009924     0.000300     NO 
 Maximum Displacement     0.236066     0.001800     NO 
 RMS     Displacement     0.062595     0.001200     NO 
 Predicted change in Energy=-1.178136D-02
 GradGradGradGradGradGradGradGradGradGradGradGradGradGradGradGradGradGrad

                          Input orientation:                          
 ---------------------------------------------------------------------
 Center     Atomic      Atomic             Coordinates (Angstroms)
 Number     Number       Type             X           Y           Z
 ---------------------------------------------------------------------
      1          6           0        0.031733   -1.778757    1.215406
      2          6           0        1.413348   -1.786234    1.197933
      3          6           0        2.097340   -0.586098    1.179413
      4          6           0        1.413458    0.613684    1.182507
      5          6           0        0.024842    0.618268    1.195546
      6          6           0       -0.665422   -0.586940    1.209974
      7          1           0       -0.508556   -2.702049    1.228853
      8          1           0        1.948365   -2.712962    1.199044
      9          1           0        3.167081   -0.579439    1.166947
     10          1           0        1.950272    1.538312    1.162485
     11          1           0       -1.734602   -0.589389    1.229299
     12          6           0       -0.759415    1.976018    1.194002
     13          6           0       -1.463447    3.195563    1.193235
     14          1           0       -1.985840    4.101508    1.193304
     15          1           0       -0.120737    2.277421    2.018752
     16          1           0       -1.338740    1.572335    0.369162
 ---------------------------------------------------------------------
                    Distance matrix (angstroms):
                    1          2          3          4          5
     1  C    0.000000
     2  C    1.381746   0.000000
     3  C    2.385470   1.381490   0.000000
     4  C    2.762973   2.399968   1.381007   0.000000
     5  C    2.397117   2.776614   2.397083   1.388684   0.000000
     6  C    1.380754   2.399946   2.762931   2.400832   1.388956
     7  H    1.069841   2.129176   3.357140   3.832802   3.363053
     8  H    2.132249   1.070078   2.132165   3.369417   3.846692
     9  H    3.357249   2.129059   1.069835   2.121080   3.362884
    10  H    3.832303   3.367811   2.129562   1.069350   2.134211
    11  H    2.129491   3.367940   3.832268   3.370438   2.134296
    12  C    3.837279   4.344590   3.837409   2.564657   1.567976
    13  C    5.194220   5.752763   5.194262   3.865592   2.976149
    14  H    6.216801   6.798530   6.216607   4.870345   4.021916
    15  H    4.137777   4.420459   3.718077   2.412692   1.857862
    16  H    3.718084   4.420503   4.137873   3.025745   1.858094
                    6          7          8          9         10
     6  C    0.000000
     7  H    2.121002   0.000000
     8  H    3.369269   2.457126   0.000000
     9  H    3.832752   4.244952   2.457279   0.000000
    10  H    3.370580   4.902133   4.251431   2.442440   0.000000
    11  H    1.069357   2.442647   4.251438   4.902090   4.255570
    12  C    2.564731   4.684918   5.414668   4.684920   2.744993
    13  C    3.865806   5.974522   6.822842   5.974373   3.794853
    14  H    4.870865   6.962185   7.868609   6.961649   4.697223
    15  H    3.025784   5.056626   5.464158   4.438127   2.359779
    16  H    2.413046   4.438315   5.464205   5.056582   3.383508
                   11         12         13         14         15
    11  H    0.000000
    12  C    2.744731   0.000000
    13  C    3.794824   1.408173   0.000000
    14  H    4.697758   2.453941   1.045768   0.000000
    15  H    3.383252   1.085803   1.824098   2.736287   0.000000
    16  H    2.359998   1.085789   1.824697   2.737638   2.168369
                   16
    16  H    0.000000
 Stoichiometry    C8H8
 Framework group  C1[X(C8H8)]
 Deg. of freedom    42
 Full point group                 C1      NOp   1
 Largest Abelian subgroup         C1      NOp   1
 Largest concise Abelian subgroup C1      NOp   1
                         Standard orientation:                         
 ---------------------------------------------------------------------
 Center     Atomic      Atomic             Coordinates (Angstroms)
 Number     Number       Type             X           Y           Z
 ---------------------------------------------------------------------
      1          6           0        1.631349    1.192417   -0.027935
      2          6           0        2.328684   -0.000129    0.000021
      3          6           0        1.631382   -1.192400    0.027851
      4          6           0        0.250403   -1.200143    0.023663
      5          6           0       -0.447930   -0.000052    0.000078
      6          6           0        0.250623    1.200221   -0.023726
      7          1           0        2.160758    2.121856   -0.048652
      8          1           0        3.398762   -0.000045   -0.000192
      9          1           0        2.160527   -2.121984    0.048477
     10          1           0       -0.281906   -2.127188    0.050932
     11          1           0       -0.281881    2.127157   -0.051191
     12          6           0       -2.015906    0.000175    0.000304
     13          6           0       -3.424080    0.000030   -0.000110
     14          1           0       -4.469847   -0.000603   -0.001051
     15          1           0       -1.956859   -0.710455   -0.818528
     16          1           0       -1.956700    0.710551    0.819327
 ---------------------------------------------------------------------
 Rotational constants (GHZ):           5.6592025           1.3557863           1.1003630
 Standard basis: 3-21G (6D, 7F)
 There are    88 symmetry adapted cartesian basis functions of A   symmetry.
 There are    88 symmetry adapted basis functions of A   symmetry.
    88 basis functions,   144 primitive gaussians,    88 cartesian basis functions
    28 alpha electrons       28 beta electrons
       nuclear repulsion energy       317.6027934712 Hartrees.
 NAtoms=   16 NActive=   16 NUniq=   16 SFac= 1.00D+00 NAtFMM=   60 NAOKFM=F Big=F
 Integral buffers will be    131072 words long.
 Raffenetti 1 integral format.
 Two-electron integral symmetry is turned on.
 One-electron integrals computed using PRISM.
 NBasis=    88 RedAO= T EigKep=  1.43D-03  NBF=    88
 NBsUse=    88 1.00D-06 EigRej= -1.00D+00 NBFU=    88
 Initial guess from the checkpoint file:  "styrene.chk"
 B after Tr=    -0.000000    0.000000    0.000000
         Rot=    0.999996   -0.002815    0.000002    0.000047 Ang=  -0.32 deg.
 ExpMin= 1.83D-01 ExpMax= 1.72D+02 ExpMxC= 1.72D+02 IAcc=3 IRadAn=         5 AccDes= 0.00D+00
 Harris functional with IExCor=  205 and IRadAn=       5 diagonalized for initial guess.
 HarFok:  IExCor=  205 AccDes= 0.00D+00 IRadAn=         5 IDoV= 1 UseB2=F ITyADJ=14
 ICtDFT=  3500011 ScaDFX=  1.000000  1.000000  1.000000  1.000000
 FoFCou: FMM=F IPFlag=           0 FMFlag=      100000 FMFlg1=           0
         NFxFlg=           0 DoJE=T BraDBF=F KetDBF=T FulRan=T
         wScrn=  0.000000 ICntrl=       500 IOpCl=  0 I1Cent=   200000004 NGrid=           0
         NMat0=    1 NMatS0=      1 NMatT0=    0 NMatD0=    1 NMtDS0=    0 NMtDT0=    0
 Petite list used in FoFCou.
 Keep R1 ints in memory in canonical form, NReq=8510565.
 Requested convergence on RMS density matrix=1.00D-08 within 128 cycles.
 Requested convergence on MAX density matrix=1.00D-06.
 Requested convergence on             energy=1.00D-06.
 No special actions if energy rises.
 SCF Done:  E(RHF) =  -305.456605932     A.U. after   19 cycles
            NFock= 19  Conv=0.30D-08     -V/T= 2.0017
 Calling FoFJK, ICntrl=      2127 FMM=F ISym2X=0 I1Cent= 0 IOpClX= 0 NMat=1 NMatS=1 NMatT=0.
 ***** Axes restored to original set *****
 -------------------------------------------------------------------
 Center     Atomic                   Forces (Hartrees/Bohr)
 Number     Number              X              Y              Z
 -------------------------------------------------------------------
      1        6           0.001051160   -0.000099874   -0.000227489
      2        6           0.000815672   -0.001566758    0.000033517
      3        6          -0.000412472   -0.000812279    0.000182698
      4        6          -0.000707902    0.005147314   -0.002835560
      5        6           0.010121876   -0.017489415    0.000293528
      6        6          -0.004144464    0.003377599    0.002813989
      7        1          -0.001193848   -0.000861163   -0.000075950
      8        1           0.000383426   -0.000641733   -0.000012844
      9        1           0.001350412    0.000583571    0.000081224
     10        1          -0.000151872    0.000931400   -0.000357873
     11        1          -0.000719540    0.000585756    0.000353432
     12        6          -0.022658241    0.038304646   -0.000526333
     13        6           0.009409119   -0.016217786    0.000199006
     14        1          -0.002133636    0.004004994    0.000152435
     15        1           0.003214013   -0.008128838    0.003578352
     16        1           0.005776296   -0.007117434   -0.003652131
 -------------------------------------------------------------------
 Cartesian Forces:  Max     0.038304646 RMS     0.007947368

 GradGradGradGradGradGradGradGradGradGradGradGradGradGradGradGradGradGrad
 Berny optimization.
 Using GEDIIS/GDIIS optimizer.
 FormGI is forming the generalized inverse of G from B-inverse, IUseBI=4.
 Internal  Forces:  Max     0.014214510 RMS     0.003074880
 Search for a local minimum.
 Step number   2 out of a maximum of   82
 All quantities printed in internal units (Hartrees-Bohrs-Radians)
 Mixed Optimization -- RFO/linear search
 Update second derivatives using D2CorX and points    1    2
 DE= -1.15D-02 DEPred=-1.18D-02 R= 9.77D-01
 TightC=F SS=  1.41D+00  RLast= 4.08D-01 DXNew= 5.0454D-01 1.2243D+00
 Trust test= 9.77D-01 RLast= 4.08D-01 DXMaxT set to 5.05D-01
 ITU=  1  0
 Use linear search instead of GDIIS.
     Eigenvalues ---    0.00233   0.00368   0.00499   0.00499   0.01560
     Eigenvalues ---    0.02152   0.02153   0.02155   0.02155   0.02155
     Eigenvalues ---    0.02156   0.02157   0.02159   0.02668   0.06856
     Eigenvalues ---    0.09341   0.15967   0.15999   0.16000   0.16000
     Eigenvalues ---    0.16000   0.16001   0.21918   0.22000   0.23373
     Eigenvalues ---    0.25000   0.26475   0.33712   0.33719   0.33722
     Eigenvalues ---    0.33724   0.34892   0.36924   0.37230   0.38222
     Eigenvalues ---    0.42019   0.42564   0.46439   0.46454   0.46468
     Eigenvalues ---    0.46998   0.68768
 RFO step:  Lambda=-8.20524798D-03 EMin= 2.32899206D-03
 Quartic linear search produced a step of  0.16901.
 Iteration  1 RMS(Cart)=  0.06768714 RMS(Int)=  0.03893011
 Iteration  2 RMS(Cart)=  0.05424151 RMS(Int)=  0.00384885
 Iteration  3 RMS(Cart)=  0.00387493 RMS(Int)=  0.00005395
 Iteration  4 RMS(Cart)=  0.00000554 RMS(Int)=  0.00005370
 Iteration  5 RMS(Cart)=  0.00000000 RMS(Int)=  0.00005370
 Variable       Old X    -DE/DX   Delta X   Delta X   Delta X     New X
                                 (Linear)    (Quad)   (Total)
    R1        2.61112   0.00262  -0.00428   0.00599   0.00170   2.61282
    R2        2.60925   0.00202  -0.00450   0.00434  -0.00016   2.60909
    R3        2.02171   0.00135  -0.00951   0.00381  -0.00570   2.01601
    R4        2.61064   0.00269  -0.00422   0.00614   0.00190   2.61254
    R5        2.02216   0.00075  -0.00945   0.00198  -0.00747   2.01469
    R6        2.60973   0.00194  -0.00461   0.00418  -0.00042   2.60930
    R7        2.02169   0.00135  -0.00953   0.00383  -0.00570   2.01599
    R8        2.62423  -0.00133  -0.00196  -0.00333  -0.00528   2.61895
    R9        2.02078   0.00074  -0.00969   0.00194  -0.00775   2.01303
   R10        2.62475  -0.00145  -0.00197  -0.00362  -0.00558   2.61916
   R11        2.96305   0.01259   0.00893   0.04560   0.05454   3.01758
   R12        2.02079   0.00072  -0.00966   0.00190  -0.00776   2.01304
   R13        2.66106  -0.01421   0.01692  -0.02678  -0.00986   2.65120
   R14        2.05187   0.00235   0.00505   0.00670   0.01175   2.06362
   R15        2.05184   0.00234   0.00504   0.00667   0.01171   2.06355
   R16        1.97621   0.00454  -0.00774   0.01233   0.00459   1.98081
    A1        2.10538   0.00000   0.00186   0.00106   0.00291   2.10829
    A2        2.09492   0.00060   0.00010   0.00327   0.00337   2.09830
    A3        2.08287  -0.00060  -0.00196  -0.00432  -0.00628   2.07660
    A4        2.08350  -0.00024  -0.00187   0.00047  -0.00141   2.08209
    A5        2.09972   0.00013   0.00096  -0.00016   0.00080   2.10052
    A6        2.09997   0.00011   0.00091  -0.00031   0.00061   2.10058
    A7        2.10542  -0.00002   0.00188   0.00095   0.00282   2.10824
    A8        2.09512   0.00059   0.00009   0.00320   0.00328   2.09841
    A9        2.08263  -0.00057  -0.00197  -0.00413  -0.00610   2.07654
   A10        2.09217  -0.00214  -0.00036  -0.01010  -0.01046   2.08171
   A11        2.09735   0.00167   0.00056   0.00883   0.00937   2.10673
   A12        2.09358   0.00046  -0.00021   0.00125   0.00103   2.09461
   A13        2.08768   0.00455  -0.00115   0.01785   0.01672   2.10440
   A14        2.09786  -0.00225   0.00055  -0.00882  -0.00828   2.08958
   A15        2.09765  -0.00230   0.00060  -0.00903  -0.00844   2.08920
   A16        2.09219  -0.00215  -0.00037  -0.01018  -0.01055   2.08164
   A17        2.09761   0.00167   0.00052   0.00880   0.00930   2.10691
   A18        2.09331   0.00048  -0.00016   0.00137   0.00120   2.09450
   A19        1.51618  -0.00454  -0.00923  -0.05348  -0.06269   1.45350
   A20        1.51645  -0.00442  -0.00919  -0.05062  -0.05980   1.45665
   A21        1.62492   0.00401   0.00915   0.04804   0.05720   1.68212
   A22        1.62564   0.00495   0.00927   0.05606   0.06533   1.69097
   A23        3.14209   0.00052   0.00008   0.00544   0.00553   3.14762
   A24        3.25056   0.00896   0.01842   0.10410   0.12253   3.37309
   A25        3.14081  -0.00042  -0.00013  -0.03389  -0.03402   3.10678
   A26        3.14149  -0.00017  -0.00002  -0.00521  -0.00516   3.13634
   A27        3.14131  -0.00008  -0.00005  -0.00786  -0.00760   3.13372
   A28        3.14162  -0.00002   0.00000  -0.00161  -0.00160   3.14002
    D1        0.00379  -0.00007   0.00055  -0.00282  -0.00228   0.00151
    D2       -3.13813  -0.00006   0.00072  -0.00243  -0.00172  -3.13984
    D3        3.14054   0.00001  -0.00026   0.00018  -0.00007   3.14046
    D4       -0.00138   0.00002  -0.00008   0.00057   0.00049  -0.00089
    D5       -0.00731   0.00015  -0.00128   0.00531   0.00402  -0.00328
    D6       -3.13542   0.00021   0.00107   0.00717   0.00826  -3.12716
    D7        3.13910   0.00006  -0.00048   0.00231   0.00182   3.14092
    D8        0.01099   0.00013   0.00187   0.00417   0.00605   0.01704
    D9        0.00358  -0.00006   0.00077  -0.00243  -0.00167   0.00191
   D10        3.14034   0.00002  -0.00010   0.00056   0.00046   3.14080
   D11       -3.13769  -0.00007   0.00059  -0.00282  -0.00223  -3.13992
   D12       -0.00093   0.00001  -0.00028   0.00018  -0.00010  -0.00103
   D13       -0.00737   0.00014  -0.00135   0.00524   0.00389  -0.00348
   D14       -3.13554   0.00022   0.00101   0.00752   0.00854  -3.12700
   D15        3.13903   0.00006  -0.00048   0.00225   0.00176   3.14079
   D16        0.01085   0.00014   0.00188   0.00453   0.00641   0.01727
   D17        0.00380  -0.00007   0.00060  -0.00274  -0.00214   0.00167
   D18       -3.13780  -0.00005   0.00064  -0.00183  -0.00118  -3.13898
   D19        3.13200  -0.00014  -0.00175  -0.00495  -0.00669   3.12531
   D20       -0.00960  -0.00012  -0.00171  -0.00404  -0.00574  -0.01533
   D21        0.00347  -0.00007   0.00070  -0.00249  -0.00179   0.00168
   D22        3.13162  -0.00013  -0.00165  -0.00429  -0.00593   3.12568
   D23       -3.13812  -0.00009   0.00066  -0.00341  -0.00274  -3.14086
   D24       -0.00997  -0.00015  -0.00169  -0.00521  -0.00688  -0.01686
   D25       -0.87576  -0.00343  -0.02742  -0.32857  -0.35583  -1.23159
   D26        2.26554  -0.00353  -0.02747  -0.33701  -0.36463   1.90091
   D27        2.26582  -0.00340  -0.02738  -0.32765  -0.35488   1.91094
   D28       -0.87606  -0.00351  -0.02743  -0.33609  -0.36369  -1.23975
         Item               Value     Threshold  Converged?
 Maximum Force            0.014215     0.000450     NO 
 RMS     Force            0.003075     0.000300     NO 
 Maximum Displacement     0.545458     0.001800     NO 
 RMS     Displacement     0.118345     0.001200     NO 
 Predicted change in Energy=-6.218932D-03
 GradGradGradGradGradGradGradGradGradGradGradGradGradGradGradGradGradGrad

                          Input orientation:                          
 ---------------------------------------------------------------------
 Center     Atomic      Atomic             Coordinates (Angstroms)
 Number     Number       Type             X           Y           Z
 ---------------------------------------------------------------------
      1          6           0        0.030890   -1.775944    1.254177
      2          6           0        1.412524   -1.784752    1.202062
      3          6           0        2.094960   -0.583810    1.144452
      4          6           0        1.413416    0.617042    1.140792
      5          6           0        0.028472    0.610370    1.191529
      6          6           0       -0.669178   -0.585940    1.247440
      7          1           0       -0.510718   -2.694019    1.297928
      8          1           0        1.945895   -2.707860    1.206043
      9          1           0        3.160977   -0.573179    1.104516
     10          1           0        1.940034    1.541213    1.083020
     11          1           0       -1.733077   -0.580211    1.300828
     12          6           0       -0.770741    1.992791    1.184222
     13          6           0       -1.476138    3.205507    1.188352
     14          1           0       -1.990196    4.118266    1.224893
     15          1           0       -0.357343    2.089482    2.190335
     16          1           0       -1.050096    1.682286    0.175274
 ---------------------------------------------------------------------
                    Distance matrix (angstroms):
                    1          2          3          4          5
     1  C    0.000000
     2  C    1.382645   0.000000
     3  C    2.386129   1.382497   0.000000
     4  C    2.765975   2.402575   1.380783   0.000000
     5  C    2.387138   2.766282   2.387186   1.385889   0.000000
     6  C    1.380670   2.402643   2.766058   2.407434   1.386002
     7  H    1.066825   2.129511   3.356501   3.832768   3.349781
     8  H    2.130265   1.066128   2.130164   3.367902   3.832410
     9  H    3.356559   2.129440   1.066818   2.114689   3.349769
    10  H    3.831143   3.369640   2.131548   1.065249   2.128923
    11  H    2.131557   3.369789   3.831232   3.370378   2.128963
    12  C    3.853683   4.363117   3.853920   2.581688   1.596835
    13  C    5.204837   5.766042   5.207072   3.879683   2.999767
    14  H    6.231160   6.813563   6.229325   4.883669   4.047403
    15  H    3.996078   4.372505   3.775468   2.530852   1.825990
    16  H    3.780465   4.374830   3.995733   2.852343   1.828958
                    6          7          8          9         10
     6  C    0.000000
     7  H    2.114629   0.000000
     8  H    3.367917   2.458369   0.000000
     9  H    3.832843   4.244611   2.458373   0.000000
    10  H    3.370431   4.897914   4.250857   2.441683   0.000000
    11  H    1.065253   2.441794   4.250965   4.897995   4.247308
    12  C    2.581505   4.695395   5.429245   4.695632   2.749994
    13  C    3.876822   5.979002   6.832169   5.982335   3.801474
    14  H    4.886221   6.971472   7.879667   6.968410   4.701919
    15  H    2.853801   4.868450   5.411860   4.543935   2.608579
    16  H    2.537615   4.550091   5.414039   4.866596   3.128064
                   11         12         13         14         15
    11  H    0.000000
    12  C    2.749550   0.000000
    13  C    3.796094   1.402955   0.000000
    14  H    4.706119   2.450789   1.048198   0.000000
    15  H    3.132272   1.092020   1.871145   2.777454   0.000000
    16  H    2.617676   1.091984   1.878309   2.814158   2.169374
                   16
    16  H    0.000000
 Stoichiometry    C8H8
 Framework group  C1[X(C8H8)]
 Deg. of freedom    42
 Full point group                 C1      NOp   1
 Largest Abelian subgroup         C1      NOp   1
 Largest concise Abelian subgroup C1      NOp   1
                         Standard orientation:                         
 ---------------------------------------------------------------------
 Center     Atomic      Atomic             Coordinates (Angstroms)
 Number     Number       Type             X           Y           Z
 ---------------------------------------------------------------------
      1          6           0        1.631410    1.193285   -0.018071
      2          6           0        2.330558    0.000533   -0.002577
      3          6           0        1.632427   -1.192607    0.015518
      4          6           0        0.251689   -1.203761    0.015974
      5          6           0       -0.435719   -0.000445    0.002219
      6          6           0        0.250784    1.203488   -0.013855
      7          1           0        2.155138    2.122615   -0.031085
      8          1           0        3.396685    0.000958   -0.004345
      9          1           0        2.156778   -2.121599    0.026890
     10          1           0       -0.284849   -2.123618    0.043292
     11          1           0       -0.286643    2.122892   -0.039019
     12          6           0       -2.032550   -0.000735    0.006224
     13          6           0       -3.435483    0.003064   -0.000683
     14          1           0       -4.482898   -0.007601   -0.039745
     15          1           0       -1.907235   -0.374696   -1.012087
     16          1           0       -1.905675    0.364120    1.027603
 ---------------------------------------------------------------------
 Rotational constants (GHZ):           5.6479901           1.3479127           1.0982043
 Standard basis: 3-21G (6D, 7F)
 There are    88 symmetry adapted cartesian basis functions of A   symmetry.
 There are    88 symmetry adapted basis functions of A   symmetry.
    88 basis functions,   144 primitive gaussians,    88 cartesian basis functions
    28 alpha electrons       28 beta electrons
       nuclear repulsion energy       317.2447773331 Hartrees.
 NAtoms=   16 NActive=   16 NUniq=   16 SFac= 1.00D+00 NAtFMM=   60 NAOKFM=F Big=F
 Integral buffers will be    131072 words long.
 Raffenetti 1 integral format.
 Two-electron integral symmetry is turned on.
 One-electron integrals computed using PRISM.
 NBasis=    88 RedAO= T EigKep=  1.46D-03  NBF=    88
 NBsUse=    88 1.00D-06 EigRej= -1.00D+00 NBFU=    88
 Initial guess from the checkpoint file:  "styrene.chk"
 B after Tr=     0.000000   -0.000000    0.000000
         Rot=    0.999934   -0.011483   -0.000010   -0.000086 Ang=  -1.32 deg.
 ExpMin= 1.83D-01 ExpMax= 1.72D+02 ExpMxC= 1.72D+02 IAcc=3 IRadAn=         5 AccDes= 0.00D+00
 Harris functional with IExCor=  205 and IRadAn=       5 diagonalized for initial guess.
 HarFok:  IExCor=  205 AccDes= 0.00D+00 IRadAn=         5 IDoV= 1 UseB2=F ITyADJ=14
 ICtDFT=  3500011 ScaDFX=  1.000000  1.000000  1.000000  1.000000
 FoFCou: FMM=F IPFlag=           0 FMFlag=      100000 FMFlg1=           0
         NFxFlg=           0 DoJE=T BraDBF=F KetDBF=T FulRan=T
         wScrn=  0.000000 ICntrl=       500 IOpCl=  0 I1Cent=   200000004 NGrid=           0
         NMat0=    1 NMatS0=      1 NMatT0=    0 NMatD0=    1 NMtDS0=    0 NMtDT0=    0
 Petite list used in FoFCou.
 Keep R1 ints in memory in canonical form, NReq=8510565.
 Requested convergence on RMS density matrix=1.00D-08 within 128 cycles.
 Requested convergence on MAX density matrix=1.00D-06.
 Requested convergence on             energy=1.00D-06.
 No special actions if energy rises.
 SCF Done:  E(RHF) =  -305.465259341     A.U. after   21 cycles
            NFock= 21  Conv=0.54D-08     -V/T= 2.0018
 Calling FoFJK, ICntrl=      2127 FMM=F ISym2X=0 I1Cent= 0 IOpClX= 0 NMat=1 NMatS=1 NMatT=0.
 ***** Axes restored to original set *****
 -------------------------------------------------------------------
 Center     Atomic                   Forces (Hartrees/Bohr)
 Number     Number              X              Y              Z
 -------------------------------------------------------------------
      1        6           0.001912819    0.000965582   -0.000666560
      2        6          -0.001007702    0.002119181   -0.000019837
      3        6          -0.001796368   -0.001594223   -0.000052274
      4        6          -0.004265416    0.004950189   -0.003228379
      5        6           0.009462971   -0.017711791    0.005182908
      6        6          -0.001988500    0.005628255    0.002929503
      7        1          -0.001850692   -0.003195220    0.000195204
      8        1           0.001853067   -0.003185796    0.000062886
      9        1           0.003701320    0.000006792   -0.000144643
     10        1           0.001019925    0.003424271    0.000459685
     11        1          -0.003363973    0.000874562   -0.000174256
     12        6          -0.035085421    0.054159124   -0.006053950
     13        6           0.012848150   -0.028851526   -0.002143159
     14        1           0.000882519    0.003348826    0.005012920
     15        1           0.006413877   -0.009785282    0.001482302
     16        1           0.011263423   -0.011152945   -0.002842348
 -------------------------------------------------------------------
 Cartesian Forces:  Max     0.054159124 RMS     0.011409337

 GradGradGradGradGradGradGradGradGradGradGradGradGradGradGradGradGradGrad
 Berny optimization.
 Using GEDIIS/GDIIS optimizer.
 FormGI is forming the generalized inverse of G from B-inverse, IUseBI=4.
 Internal  Forces:  Max     0.028939977 RMS     0.004988919
 Search for a local minimum.
 Step number   3 out of a maximum of   82
 All quantities printed in internal units (Hartrees-Bohrs-Radians)
 Mixed Optimization -- RFO/linear search
 Update second derivatives using D2CorX and points    2    3
 DE= -8.65D-03 DEPred=-6.22D-03 R= 1.39D+00
 TightC=F SS=  1.41D+00  RLast= 7.44D-01 DXNew= 8.4853D-01 2.2333D+00
 Trust test= 1.39D+00 RLast= 7.44D-01 DXMaxT set to 8.49D-01
 ITU=  1  1  0
 Use linear search instead of GDIIS.
     Eigenvalues ---   -4.59284   0.00000   0.00381   0.00499   0.01557
     Eigenvalues ---    0.01845   0.02116   0.02153   0.02155   0.02155
     Eigenvalues ---    0.02155   0.02156   0.02158   0.02166   0.02707
     Eigenvalues ---    0.06693   0.15172   0.15913   0.15998   0.15999
     Eigenvalues ---    0.16000   0.16000   0.20316   0.22000   0.22397
     Eigenvalues ---    0.23015   0.25005   0.32430   0.33717   0.33721
     Eigenvalues ---    0.33724   0.33766   0.36363   0.37230   0.37486
     Eigenvalues ---    0.41615   0.42047   0.42881   0.46452   0.46467
     Eigenvalues ---    0.46611   0.49116
 RFO step:  Lambda=-4.59310430D+00 EMin=-4.59284102D+00
 I=     1 Eig=   -4.59D+00 Dot1=  2.09D-02
 I=     1 Stepn=  6.00D-01 RXN=   6.00D-01 EDone=F
 Mixed    1 eigenvectors in step.  Raw Step.Grad=  2.09D-02.
 RFO eigenvector is Hessian eigenvector with negative curvature.
 Taking step of  6.00D-01 in eigenvector direction(s).  Step.Grad=  1.34D-03.
 Skip linear search -- no minimum in search direction.
 Iteration  1 RMS(Cart)=  0.13454253 RMS(Int)=  0.02677806
 Iteration  2 RMS(Cart)=  0.04442285 RMS(Int)=  0.00179889
 Iteration  3 RMS(Cart)=  0.00110402 RMS(Int)=  0.00142915
 Iteration  4 RMS(Cart)=  0.00000384 RMS(Int)=  0.00142915
 Iteration  5 RMS(Cart)=  0.00000001 RMS(Int)=  0.00142915
 Variable       Old X    -DE/DX   Delta X   Delta X   Delta X     New X
                                 (Linear)    (Quad)   (Total)
    R1        2.61282   0.00265   0.00000  -0.00029  -0.00037   2.61245
    R2        2.60909   0.00271   0.00000   0.01560   0.01561   2.62470
    R3        2.01601   0.00370   0.00000   0.05661   0.05661   2.07262
    R4        2.61254   0.00241   0.00000  -0.00762  -0.00772   2.60482
    R5        2.01469   0.00369   0.00000   0.07126   0.07126   2.08595
    R6        2.60930   0.00295   0.00000   0.02314   0.02312   2.63242
    R7        2.01599   0.00370   0.00000   0.05658   0.05658   2.07257
    R8        2.61895  -0.00301   0.00000  -0.04171  -0.04162   2.57733
    R9        2.01303   0.00345   0.00000   0.06563   0.06563   2.07866
   R10        2.61916  -0.00286   0.00000  -0.03478  -0.03468   2.58448
   R11        3.01758   0.00854   0.00000  -0.10100  -0.10100   2.91658
   R12        2.01304   0.00336   0.00000   0.06357   0.06357   2.07660
   R13        2.65120  -0.02894   0.00000  -0.34697  -0.34697   2.30423
   R14        2.06362   0.00293   0.00000   0.01522   0.01522   2.07884
   R15        2.06355   0.00292   0.00000   0.01527   0.01527   2.07882
   R16        1.98081   0.00266   0.00000  -0.04839  -0.04839   1.93242
    A1        2.10829  -0.00066   0.00000  -0.01616  -0.01621   2.09208
    A2        2.09830   0.00030   0.00000  -0.00814  -0.00811   2.09018
    A3        2.07660   0.00036   0.00000   0.02430   0.02433   2.10092
    A4        2.08209   0.00058   0.00000   0.02128   0.02111   2.10320
    A5        2.10052  -0.00028   0.00000  -0.01072  -0.01063   2.08989
    A6        2.10058  -0.00030   0.00000  -0.01056  -0.01048   2.09010
    A7        2.10824  -0.00067   0.00000  -0.01577  -0.01588   2.09236
    A8        2.09841   0.00030   0.00000  -0.00783  -0.00778   2.09063
    A9        2.07654   0.00036   0.00000   0.02360   0.02365   2.10019
   A10        2.08171  -0.00284   0.00000  -0.01815  -0.01808   2.06362
   A11        2.10673   0.00225   0.00000   0.01487   0.01483   2.12155
   A12        2.09461   0.00060   0.00000   0.00339   0.00334   2.09795
   A13        2.10440   0.00642   0.00000   0.04639   0.04655   2.15095
   A14        2.08958  -0.00360   0.00000  -0.03373  -0.03383   2.05575
   A15        2.08920  -0.00282   0.00000  -0.01267  -0.01278   2.07643
   A16        2.08164  -0.00283   0.00000  -0.01759  -0.01749   2.06415
   A17        2.10691   0.00229   0.00000   0.01619   0.01611   2.12302
   A18        2.09450   0.00055   0.00000   0.00157   0.00150   2.09600
   A19        1.45350  -0.00830   0.00000  -0.09987  -0.09572   1.35778
   A20        1.45665  -0.00532   0.00000  -0.02350  -0.02139   1.43525
   A21        1.68212   0.00161   0.00000  -0.06174  -0.06004   1.62207
   A22        1.69097   0.01206   0.00000   0.18646   0.18624   1.87721
   A23        3.14762   0.00674   0.00000   0.16296   0.16485   3.31247
   A24        3.37309   0.01367   0.00000   0.12472   0.12620   3.49928
   A25        3.10678  -0.01083   0.00000  -0.27805  -0.27805   2.82874
   A26        3.13634  -0.00466   0.00000  -0.11953  -0.11669   3.01965
   A27        3.13372  -0.00194   0.00000  -0.05070  -0.04303   3.09069
   A28        3.14002  -0.00047   0.00000  -0.01192  -0.01192   3.12810
    D1        0.00151  -0.00008   0.00000  -0.00009  -0.00012   0.00140
    D2       -3.13984  -0.00009   0.00000  -0.00053  -0.00051  -3.14035
    D3        3.14046  -0.00003   0.00000  -0.00102  -0.00108   3.13939
    D4       -0.00089  -0.00004   0.00000  -0.00146  -0.00147  -0.00236
    D5       -0.00328   0.00015   0.00000   0.00015   0.00009  -0.00320
    D6       -3.12716  -0.00020   0.00000  -0.01106  -0.01116  -3.13832
    D7        3.14092   0.00010   0.00000   0.00111   0.00110  -3.14116
    D8        0.01704  -0.00025   0.00000  -0.01009  -0.01015   0.00690
    D9        0.00191  -0.00002   0.00000   0.00112   0.00116   0.00307
   D10        3.14080  -0.00002   0.00000  -0.00108  -0.00102   3.13977
   D11       -3.13992  -0.00002   0.00000   0.00156   0.00155  -3.13837
   D12       -0.00103  -0.00002   0.00000  -0.00064  -0.00063  -0.00166
   D13       -0.00348   0.00006   0.00000  -0.00215  -0.00210  -0.00558
   D14       -3.12700  -0.00012   0.00000  -0.00897  -0.00899  -3.13599
   D15        3.14079   0.00006   0.00000   0.00007   0.00014   3.14092
   D16        0.01727  -0.00012   0.00000  -0.00675  -0.00675   0.01052
   D17        0.00167   0.00001   0.00000   0.00221   0.00216   0.00383
   D18       -3.13898   0.00044   0.00000   0.01320   0.01321  -3.12577
   D19        3.12531   0.00021   0.00000   0.00911   0.00908   3.13439
   D20       -0.01533   0.00064   0.00000   0.02010   0.02012   0.00479
   D21        0.00168  -0.00011   0.00000  -0.00119  -0.00112   0.00055
   D22        3.12568   0.00026   0.00000   0.01009   0.01010   3.13578
   D23       -3.14086  -0.00055   0.00000  -0.01219  -0.01231   3.13002
   D24       -0.01686  -0.00018   0.00000  -0.00091  -0.00108  -0.01794
   D25       -1.23159  -0.00114   0.00000   0.06033   0.06401  -1.16758
   D26        1.90091  -0.00424   0.00000  -0.01882  -0.02217   1.87874
   D27        1.91094  -0.00072   0.00000   0.07119   0.07454   1.98548
   D28       -1.23975  -0.00381   0.00000  -0.00795  -0.01164  -1.25138
         Item               Value     Threshold  Converged?
 Maximum Force            0.028940     0.000450     NO 
 RMS     Force            0.004989     0.000300     NO 
 Maximum Displacement     0.738902     0.001800     NO 
 RMS     Displacement     0.159474     0.001200     NO 
 Predicted change in Energy=-8.463675D-01
 GradGradGradGradGradGradGradGradGradGradGradGradGradGradGradGradGradGrad

                          Input orientation:                          
 ---------------------------------------------------------------------
 Center     Atomic      Atomic             Coordinates (Angstroms)
 Number     Number       Type             X           Y           Z
 ---------------------------------------------------------------------
      1          6           0       -0.008918   -1.724400    1.281987
      2          6           0        1.373351   -1.713366    1.262559
      3          6           0        2.062394   -0.522769    1.174687
      4          6           0        1.363445    0.680387    1.108475
      5          6           0        0.000405    0.636651    1.126638
      6          6           0       -0.711230   -0.528228    1.210885
      7          1           0       -0.544796   -2.678928    1.350106
      8          1           0        1.929406   -2.665306    1.317993
      9          1           0        3.159067   -0.527657    1.161908
     10          1           0        1.885168    1.645788    1.032555
     11          1           0       -1.809709   -0.502865    1.227092
     12          6           0       -0.763692    1.974225    1.031236
     13          6           0       -1.413899    2.991558    1.201728
     14          1           0       -1.791633    3.846817    1.615903
     15          1           0       -0.271335    2.057050    2.011486
     16          1           0       -0.988346    1.602287    0.020625
 ---------------------------------------------------------------------
                    Distance matrix (angstroms):
                    1          2          3          4          5
     1  C    0.000000
     2  C    1.382450   0.000000
     3  C    2.397033   1.378413   0.000000
     4  C    2.774255   2.398728   1.393018   0.000000
     5  C    2.366175   2.725075   2.366086   1.363863   0.000000
     6  C    1.388930   2.398479   2.773866   2.403231   1.367649
     7  H    1.096781   2.149247   3.387807   3.871017   3.367528
     8  H    2.154925   1.103839   2.151439   3.399688   3.828914
     9  H    3.388620   2.145884   1.096758   2.164829   3.366601
    10  H    3.874009   3.405697   2.180425   1.099980   2.139986
    11  H    2.176697   3.405649   3.872510   3.388668   2.141285
    12  C    3.783171   4.268347   3.773900   2.490922   1.543389
    13  C    4.921451   5.468892   4.943263   3.614395   2.747996
    14  H    5.859013   6.407621   5.843071   4.498697   3.708901
    15  H    3.860103   4.181138   3.577987   2.320158   1.695385
    16  H    3.690144   4.256004   3.892909   2.750316   1.770126
                    6          7          8          9         10
     6  C    0.000000
     7  H    2.161619   0.000000
     8  H    3.398756   2.474448   0.000000
     9  H    3.870607   4.287422   2.471027   0.000000
    10  H    3.391081   4.970788   4.320760   2.522581   0.000000
    11  H    1.098891   2.519998   4.320348   4.969266   4.278630
    12  C    2.509441   4.669200   5.372174   4.654516   2.669143
    13  C    3.589251   5.738621   6.572011   5.770484   3.567010
    14  H    4.524635   6.649105   7.506173   6.622051   4.324775
    15  H    2.741921   4.789749   5.255934   4.378373   2.403735
    16  H    2.456136   4.504782   5.329990   4.800023   3.046797
                   11         12         13         14         15
    11  H    0.000000
    12  C    2.696013   0.000000
    13  C    3.516860   1.219346   0.000000
    14  H    4.367062   2.214746   1.022590   0.000000
    15  H    3.087885   1.100074   1.683588   2.381398   0.000000
    16  H    2.561614   1.100065   1.872478   2.868466   2.164357
                   16
    16  H    0.000000
 Stoichiometry    C8H8
 Framework group  C1[X(C8H8)]
 Deg. of freedom    42
 Full point group                 C1      NOp   1
 Largest Abelian subgroup         C1      NOp   1
 Largest concise Abelian subgroup C1      NOp   1
                         Standard orientation:                         
 ---------------------------------------------------------------------
 Center     Atomic      Atomic             Coordinates (Angstroms)
 Number     Number       Type             X           Y           Z
 ---------------------------------------------------------------------
      1          6           0        1.577835    1.201238   -0.040263
      2          6           0        2.265083    0.001723   -0.044874
      3          6           0        1.583220   -1.195502   -0.003205
      4          6           0        0.190888   -1.200092    0.040262
      5          6           0       -0.458450   -0.000742    0.046750
      6          6           0        0.189756    1.202927    0.008350
      7          1           0        2.132805    2.146729   -0.071625
      8          1           0        3.368285    0.002815   -0.082363
      9          1           0        2.140294   -2.140230   -0.009104
     10          1           0       -0.380735   -2.139068    0.079349
     11          1           0       -0.385851    2.139001    0.010263
     12          6           0       -2.000163   -0.017655    0.116631
     13          6           0       -3.203633    0.036230   -0.071950
     14          1           0       -4.125799   -0.056329   -0.504077
     15          1           0       -1.807436   -0.455683   -0.873900
     16          1           0       -1.808768    0.333998    1.141253
 ---------------------------------------------------------------------
 Rotational constants (GHZ):           5.5776225           1.4716147           1.1788732
 Standard basis: 3-21G (6D, 7F)
 There are    88 symmetry adapted cartesian basis functions of A   symmetry.
 There are    88 symmetry adapted basis functions of A   symmetry.
    88 basis functions,   144 primitive gaussians,    88 cartesian basis functions
    28 alpha electrons       28 beta electrons
       nuclear repulsion energy       323.6648075477 Hartrees.
 NAtoms=   16 NActive=   16 NUniq=   16 SFac= 1.00D+00 NAtFMM=   60 NAOKFM=F Big=F
 Integral buffers will be    131072 words long.
 Raffenetti 1 integral format.
 Two-electron integral symmetry is turned on.
 One-electron integrals computed using PRISM.
 NBasis=    88 RedAO= T EigKep=  1.50D-03  NBF=    88
 NBsUse=    88 1.00D-06 EigRej= -1.00D+00 NBFU=    88
 Initial guess from the checkpoint file:  "styrene.chk"
 B after Tr=     0.000000   -0.000000    0.000000
         Rot=    1.000000    0.000721    0.000604   -0.000188 Ang=   0.11 deg.
 ExpMin= 1.83D-01 ExpMax= 1.72D+02 ExpMxC= 1.72D+02 IAcc=3 IRadAn=         5 AccDes= 0.00D+00
 Harris functional with IExCor=  205 and IRadAn=       5 diagonalized for initial guess.
 HarFok:  IExCor=  205 AccDes= 0.00D+00 IRadAn=         5 IDoV= 1 UseB2=F ITyADJ=14
 ICtDFT=  3500011 ScaDFX=  1.000000  1.000000  1.000000  1.000000
 FoFCou: FMM=F IPFlag=           0 FMFlag=      100000 FMFlg1=           0
         NFxFlg=           0 DoJE=T BraDBF=F KetDBF=T FulRan=T
         wScrn=  0.000000 ICntrl=       500 IOpCl=  0 I1Cent=   200000004 NGrid=           0
         NMat0=    1 NMatS0=      1 NMatT0=    0 NMatD0=    1 NMtDS0=    0 NMtDT0=    0
 Petite list used in FoFCou.
 Keep R1 ints in memory in canonical form, NReq=8510767.
 Requested convergence on RMS density matrix=1.00D-08 within 128 cycles.
 Requested convergence on MAX density matrix=1.00D-06.
 Requested convergence on             energy=1.00D-06.
 No special actions if energy rises.
 SCF Done:  E(RHF) =  -305.474403731     A.U. after   20 cycles
            NFock= 20  Conv=0.30D-08     -V/T= 1.9996
 Calling FoFJK, ICntrl=      2127 FMM=F ISym2X=0 I1Cent= 0 IOpClX= 0 NMat=1 NMatS=1 NMatT=0.
 ***** Axes restored to original set *****
 -------------------------------------------------------------------
 Center     Atomic                   Forces (Hartrees/Bohr)
 Number     Number              X              Y              Z
 -------------------------------------------------------------------
      1        6          -0.018852021   -0.007084034   -0.003474320
      2        6           0.018994703   -0.024187753    0.001595099
      3        6           0.017224403    0.004614912   -0.005282084
      4        6           0.030420423    0.003650672   -0.003800217
      5        6           0.007975677   -0.006992807    0.060885641
      6        6          -0.019099221   -0.028295932    0.003767942
      7        1           0.007468772    0.016117815   -0.000612574
      8        1          -0.011145487    0.019158985   -0.000741224
      9        1          -0.017553108    0.001262579    0.000119858
     10        1          -0.008378321   -0.017644925    0.003672064
     11        1           0.020014052   -0.001057547    0.001054600
     12        6           0.023199035   -0.148672034   -0.133442612
     13        6          -0.076589657    0.142422206    0.062482200
     14        1          -0.003120325    0.019353153    0.032241859
     15        1           0.009041193    0.035067763    0.019725338
     16        1           0.020399881   -0.007713051   -0.038191568
 -------------------------------------------------------------------
 Cartesian Forces:  Max     0.148672034 RMS     0.042116120

 GradGradGradGradGradGradGradGradGradGradGradGradGradGradGradGradGradGrad
 Berny optimization.
 Using GEDIIS/GDIIS optimizer.
 FormGI is forming the generalized inverse of G from B-inverse, IUseBI=4.
 Internal  Forces:  Max     0.190738004 RMS     0.029901817
 Search for a local minimum.
 Step number   4 out of a maximum of   82
 All quantities printed in internal units (Hartrees-Bohrs-Radians)
 Mixed Optimization -- RFO/linear search
 Update second derivatives using D2CorX and points    3    4
 ITU=  0  1  1  0
 Use linear search instead of GDIIS.
     Eigenvalues ---    0.00000   0.00405   0.00492   0.01577   0.01623
     Eigenvalues ---    0.02015   0.02128   0.02153   0.02154   0.02155
     Eigenvalues ---    0.02155   0.02157   0.02159   0.02212   0.03891
     Eigenvalues ---    0.07885   0.15380   0.15948   0.15999   0.16000
     Eigenvalues ---    0.16000   0.16103   0.21632   0.22001   0.22426
     Eigenvalues ---    0.24997   0.27348   0.33712   0.33721   0.33724
     Eigenvalues ---    0.33726   0.34817   0.36399   0.37232   0.38838
[...]
 hermal=0.1460379\Dipole=0.5899965,-0.5898316,-0.2083825\DipoleDeriv=-0
 .0006032,0.1009962,0.0259303,0.0882646,0.1095262,0.0040168,0.02215,0.0
 112324,-0.1229277,-0.1003637,-0.0930464,0.027192,-0.1042304,0.0281279,
 -0.0564288,0.0251785,-0.0387788,-0.1549166,0.1387266,-0.0014982,0.0673
 474,0.026399,-0.0603527,0.0084524,0.0700609,-0.0112121,-0.117161,-0.08
 40659,0.1559085,0.0138226,0.13154,-0.0290974,0.0009495,0.0151114,0.032
 6319,-0.1482652,-0.0019481,-0.106115,-0.0364319,-0.1222207,0.1976922,-
 0.0651545,0.0626565,-0.0782003,-0.1444933,0.0624038,0.037569,0.0817908
 ,0.0603023,-0.2037416,-0.0086653,0.0533005,0.0204391,-0.1305791,0.0396
 633,-0.078101,-0.022373,-0.0694056,-0.0671301,-0.0068753,-0.0243319,-0
 .0038876,0.1462848,0.0421581,0.0752123,-0.0347444,0.0744615,-0.0558214
 ,0.0345132,-0.0356535,0.0367036,0.1454999,-0.0892765,0.0062221,-0.0591
 47,-0.0028984,0.0726088,0.0033791,-0.0618819,0.0073671,0.1360556,0.054
 0755,-0.0719667,-0.0162281,-0.0811886,-0.0720417,0.00181,-0.0230026,0.
 0046993,0.1313046,-0.0788131,0.0019776,-0.0609744,0.015264,0.0849945,0
 .0139433,-0.0577195,0.0025115,0.1275488,0.0979734,0.1176338,0.1819648,
 0.2060459,0.0834965,-0.2145497,0.1023214,-0.2474366,-0.1973565,-0.1622
 572,-0.1400013,0.1600281,-0.3512696,-0.2333432,0.2150614,0.132889,0.21
 77503,0.1474943,0.026902,0.0326865,-0.2792798,0.1774938,0.179868,0.116
 7896,-0.1649896,0.015964,-0.0257409,0.0778352,-0.0617332,0.0421752,-0.
 0212506,-0.0470159,0.0258694,-0.0399501,0.0104034,0.1505412,-0.0224103
 ,0.0242556,-0.0910727,-0.0273074,0.0122298,-0.073111,-0.0761389,0.0198
 127,0.056711\Polar=76.5889174,-4.0438383,88.2450168,11.9540762,-1.3862
 713,37.4147227\PolarDeriv=-1.0052681,2.0857044,-2.1508106,0.6704447,1.
 3498272,0.4133392,-0.8530317,-1.4023702,0.2074255,-0.7911702,-0.285591
 7,0.0399989,0.8933705,1.0653736,-0.7678071,-1.624419,-2.247903,-0.2159
 26,0.9077314,-0.4496794,1.5347644,-0.8916175,0.6924378,-0.6478553,-2.0
 004836,1.0495877,-3.1368163,-0.5883126,-0.3110161,0.1132932,-0.6977818
 ,0.9377344,0.1607688,1.7579343,-3.4300595,0.9691353,1.3888086,-0.01955
 35,1.0329377,-0.2674652,-0.3025998,-0.6604453,-0.3687678,-2.3682604,3.
 8084688,0.6433451,-0.119428,0.2804265,-1.2090846,0.225303,0.3231805,2.
 7459472,0.1777429,1.6793577,-0.0146854,-2.0580735,5.7943963,-0.2908061
 ,-0.700364,0.1397021,1.7866689,0.8778269,-1.0846012,0.581164,0.1411858
 ,0.0086845,-1.0240382,-1.1324136,2.4208641,1.2021194,2.0058347,-0.1601
 735,0.5712527,0.0744942,-4.7788742,-0.8409583,-0.1192871,0.7552751,2.0
 205714,-2.4841263,6.4360416,0.5602632,-1.2031441,-0.4719285,0.0220133,
 0.0005977,-2.4819679,-0.8299471,2.1941461,-1.1628195,-1.7881413,0.2471
 6,-2.6128067,0.3386887,0.0329873,0.3941323,-1.2622295,3.8848982,-2.834
 6094,-0.0532446,0.4765532,-0.0726032,1.309584,-0.4395615,-0.4322001,-2
 .4689197,-0.4482047,-1.6556976,-2.2701878,-2.8597362,-3.1315892,-0.172
 8039,-0.1993901,-0.2181567,-1.544725,-3.3473718,-8.3671195,-0.1519722,
 -0.5393008,-0.3738178,-0.1539193,-0.1280386,-0.3958387,-0.7140768,-1.5
 430027,-0.2576657,2.5591511,-2.9723881,2.9377806,0.5859157,-0.584023,0
 .2942152,-1.7704294,3.5863712,-8.0392776,-0.539139,1.3096353,-0.559422
 6,0.4004406,-0.6288338,1.1308084,0.8741484,-1.5947323,0.7358334,10.162
 7079,-0.3964592,0.3118237,1.9691623,-0.0563845,0.7797143,0.0872076,1.4
 927285,-0.1029879,0.0373221,0.3765869,0.0388394,1.7139151,-0.0264726,-
 0.0813679,2.0331386,-0.0839713,0.9599976,2.6104202,2.5142992,2.4113098
 ,0.1043564,0.1408511,0.1458891,1.8347385,2.895806,6.2226581,0.0716614,
 0.2522283,0.2612436,0.0859157,0.1511684,0.1267951,0.8460936,1.1180275,
 0.1407916,-8.2998987,-0.5017751,-0.5002699,-1.7774198,-0.1217787,-0.75
 82592,-0.3614407,-1.3820263,-0.1870528,-0.1199609,-0.4099541,-0.067044
 4,-1.4654515,-0.0479257,-0.2795684,-1.7403662,-0.1925829,-0.9774838,1.
 6031497,-0.8306522,-0.225663,4.1556168,1.4561459,-0.0200211,1.2711821,
 0.5202175,-6.237992,2.365332,-0.1465776,-3.4322661,2.0413056,1.2406826
 ,-1.7175407,1.1450161,-2.5767153,2.8707381,-4.3208601,4.5157365,-2.522
 4477,-1.3674742,-0.6520336,-3.172366,2.6893592,-4.0598049,8.9300166,-0
 .599028,2.4414914,2.3809827,-0.4448006,-1.2788349,4.7033214,-3.3832321
 ,2.2378927,-0.5090219,1.6763963,-0.8922065,0.7353026,3.1302774,-0.0516
 197,2.8960062,-1.3455727,1.525126,-0.3129591,-0.5378734,1.4313496,-0.7
 116956,0.5755041,0.7157346,-0.7393715,2.3010212,0.9067385,5.7945184,1.
 8484682,0.8680234,1.8833725,-2.29976,-0.7379031,1.277159,-0.2243605,0.
 8392421,5.3854563,-0.5709196,-2.3520719,2.3072115,-0.2125523,-0.635932
 6,-1.616318,0.7294297,3.2518333,-4.3409699,-5.6290449,0.6751059,-0.719
 2263,-3.0461572,-0.1468656,-1.6183289,0.0413133,-1.6278443,-0.6866509,
 -0.3074672,-1.0619462,0.258098,-1.8344205,-0.0185809,-0.3537581,-2.873
 8877,0.224956,-3.8706143\HyperPolar=29.0453278,-17.8017012,40.5680005,
 -107.2244866,-12.1127582,-4.7198408,-15.1013357,11.3862433,9.7996749,1
 3.3111898\Quadrupole=1.714986,-0.7514676,-0.9635184,5.4104881,2.802275
 4,-2.388878\PG=C01 [X(C8H8)]\NImag=0\\0.72490657,0.06493950,0.81231279
 ,0.13615800,-0.03093080,0.22914777,-0.33616419,-0.04618659,-0.06085987
 ,0.72072510,0.04015069,-0.16546300,0.01606852,-0.04489881,0.81231901,-
 0.06726789,-0.00648258,-0.11002460,0.14365619,-0.05987427,0.23026908,-
 0.03161767,-0.04056841,-0.00909947,-0.20269440,-0.12054343,-0.01946222
 ,0.80769476,-0.10746429,0.05156834,-0.03102281,-0.03426386,-0.30225928
 ,0.00693385,0.01033017,0.72313376,-0.00390939,-0.01356034,0.01470850,-
 0.02608763,-0.01526662,-0.09830611,0.15954435,-0.03817283,0.23467438,-
 0.07712570,0.04292008,-0.02082394,0.09128570,0.03463843,0.01722172,-0.
 20389645,0.03369495,-0.03169606,0.70667644,0.04287302,-0.02775550,0.01
 257067,-0.03196621,-0.07580058,-0.00133103,0.11999686,-0.30409712,0.04
 719878,0.04989555,0.82185369,-0.02151865,0.01293251,-0.01755983,0.0232
 1762,0.01664407,0.01950273,-0.03826158,0.02422751,-0.10295646,0.129630
 05,-0.03624422,0.22375454,0.09436191,-0.03379642,0.02372673,-0.0810507
 2,-0.04854879,-0.01427223,-0.02901685,0.10814301,-0.01970744,-0.310797
 42,-0.04893249,-0.05210388,0.68941861,0.03406085,-0.07633568,0.0155258
 5,-0.04752751,-0.02898480,-0.01132027,0.03973042,0.05686719,0.00683336
 ,0.03813139,-0.16133773,0.01664682,0.02201594,0.71821211,0.01811169,-0
 .00171260,0.01841245,-0.01425474,-0.01103931,-0.01421223,-0.01368403,0
 .02473945,0.00786854,-0.06015155,-0.00802545,-0.10871094,0.12549862,-0
 .02526847,0.26245763,-0.20203371,0.11592361,-0.03784006,-0.02921076,0.
 03857297,-0.01470154,-0.00360810,0.00031423,0.00201220,-0.03095789,-0.
 03906150,-0.00879140,-0.20017475,-0.12054607,-0.01964608,0.80049879,0.
 02965743,-0.29721425,0.02399454,0.10582961,0.05562461,0.02478960,-0.00
 048467,-0.10882446,0.00744639,-0.10458961,0.04879480,-0.03094090,-0.02
 912775,-0.29359103,0.00577617,0.00417022,0.72234608,-0.03125391,0.0462
 8528,-0.10412155,-0.01981032,0.00708093,0.00895165,0.00210018,0.007600
 09,-0.01112063,-0.00402621,-0.01295069,0.01498942,-0.02636833,-0.01765
 574,-0.09961799,0.16237402,-0.03849626,0.23425027,-0.14600466,-0.12902
 052,-0.01473316,-0.01108905,-0.03488472,-0.00213887,-0.00564140,0.0011
 1002,-0.00387891,-0.00060366,0.00100865,-0.00002031,-0.00081512,0.0034
 4952,-0.00276521,0.01395894,0.01874676,0.00037961,0.14931896,-0.129003
 85,-0.30126307,-0.01484395,0.00346635,0.00478520,0.00111050,0.00068214
 ,0.00150548,0.00074340,0.00099716,0.00052604,0.00015879,0.00392403,-0.
 00310561,0.00188836,-0.01976122,-0.02178039,-0.00297335,0.14018799,0.3
 1848933,-0.01480919,-0.01476252,-0.05515067,-0.00508132,-0.00907789,0.
 00647920,-0.00387262,0.00090075,0.00765877,0.00000832,0.00010857,-0.00
 085554,-0.00281375,0.00209266,0.00779647,0.00339597,0.00698304,0.00728
 625,0.01963138,0.01502048,0.03797590,-0.01085141,0.03447440,-0.0072194
 5,-0.14258156,0.12363135,-0.03343264,0.01408032,-0.01879873,0.00342984
 ,-0.00102231,-0.00375579,-0.00217652,-0.00075881,-0.00098467,0.0001058
 7,-0.00545922,-0.00176402,-0.00361307,0.00063423,-0.00041140,0.0016196
 3,0.14552957,-0.00410373,0.00559208,-0.00100236,0.12369121,-0.29556969
 ,0.05119894,0.01972596,-0.02155074,0.00731032,-0.00436927,-0.00342064,
 -0.00022344,-0.00096401,0.00042398,-0.00036808,-0.00115564,0.00137029,
 0.00026174,0.00065391,0.00093744,-0.00030817,-0.13386467,0.31225390,-0
 .00443300,0.00917463,0.00474231,-0.03333896,0.05121420,-0.06390792,0.0
 0053644,-0.00284868,0.00680403,-0.00218676,-0.00004213,0.00784271,0.00
 010915,-0.00022393,-0.00078960,-0.00364781,-0.00001255,0.00778209,0.00
 154389,-0.00059436,-0.00494139,0.03964678,-0.05648984,0.04835210,0.000
 88944,-0.00318908,-0.00171010,-0.01179955,0.00398015,-0.00514810,-0.35
 525244,-0.00586150,-0.07788544,-0.01191077,-0.00456050,-0.00451257,0.0
 0123127,0.00277024,-0.00213681,0.00100443,0.00001817,0.00046123,-0.000
 69535,0.00011967,-0.00017006,0.00059827,-0.00039131,0.00152183,0.37621
 898,-0.00273504,-0.00571418,0.00036386,-0.03443976,0.00560296,-0.00880
 025,-0.00602996,-0.07450073,0.00021151,0.03400851,0.00612070,0.0088295
 0,0.00229325,-0.00545025,0.00150978,0.00006022,-0.00118014,0.00007145,
 -0.00147841,0.00005559,-0.00041463,0.00069541,0.00098732,-0.00029650,0
 .00658963,0.07269933,-0.00164457,0.00016853,0.00806818,-0.00242982,0.0
 0094590,0.00627405,-0.07781650,0.00043633,-0.07245779,-0.00732655,-0.0
 0092893,0.00517821,-0.00240424,0.00161878,0.00825338,0.00039935,0.0002
 0593,-0.00068048,-0.00003521,0.00001282,-0.00012525,0.00146588,-0.0005
 8340,-0.00478617,0.08797606,-0.00128090,0.05679242,-0.00055404,0.00098
 641,-0.00002326,-0.00092791,0.00338963,-0.00274804,0.01381881,0.018836
 31,0.00027123,-0.14485587,-0.12706992,-0.01410678,-0.01230092,-0.03474
 501,-0.00179649,-0.00565535,0.00130353,-0.00374874,-0.00004297,-0.0000
 4451,0.00032387,0.00043676,0.00078180,0.00007289,0.00064071,-0.0003522
 3,0.00159799,0.14940702,0.00083983,0.00052135,0.00012164,0.00416772,-0
 .00321116,0.00202128,-0.02014652,-0.02249502,-0.00296472,-0.12632668,-
 0.29507014,-0.01290652,0.00214109,0.00272206,0.00097642,0.00087148,0.0
 0150091,0.00076811,-0.00003900,-0.00008066,-0.00010503,-0.00081537,-0.
 00117490,-0.00011453,0.00062633,0.00105596,-0.00035372,0.13798208,0.31
 449770,-0.00008536,0.00024078,-0.00080687,-0.00270335,0.00180640,0.008
 01657,0.00334261,0.00698806,0.00709239,-0.01342550,-0.01264638,-0.0534
 6221,-0.00586847,-0.00836828,0.00529203,-0.00371131,0.00062369,0.00708
 236,0.00033636,-0.00010995,-0.00118345,0.00018834,0.00028601,-0.000031
 49,0.00153517,-0.00060099,-0.00504425,0.01895577,0.01307113,0.03691330
 ,-0.01195456,-0.00448293,-0.00455708,0.00122298,0.00285900,-0.00223655
 ,0.00094171,-0.00009425,0.00047134,0.00088631,-0.00305183,-0.00171215,
 -0.01401996,0.00347032,-0.00595543,-0.35060524,-0.00651733,-0.07887633
 ,0.00061099,0.00061646,0.00153645,-0.00069277,-0.00012308,-0.00016031,
 -0.00017548,0.00004012,0.00029224,-0.00072172,0.00003672,-0.00016270,0
 .37279862,0.03395672,0.00598455,0.00905535,0.00220661,-0.00541218,0.00
 164819,0.00011005,-0.00116627,0.00007559,-0.00282564,-0.00572340,0.000
 24251,-0.03358865,0.00365312,-0.00856825,-0.00528553,-0.07371000,0.000
 12873,-0.00038217,0.00098862,-0.00059285,0.00146032,0.00009364,0.00038
 186,0.00003624,0.00006685,-0.00008978,-0.00157223,0.00012014,-0.000424
 31,0.00650682,0.07398111,-0.00751762,-0.00111275,0.00470170,-0.0021069
 7,0.00187176,0.00790645,0.00044188,0.00002727,-0.00064659,-0.00151850,
 0.00022760,0.00762932,-0.00315354,0.00118045,0.00570188,-0.07902251,-0
 .00013373,-0.07229785,0.00159198,-0.00032613,-0.00484890,-0.00029257,-
 0.00004821,-0.00010452,0.00027193,-0.00008816,-0.00117014,-0.00006019,
 -0.00001043,-0.00004029,0.08959435,-0.00126249,0.05741714,-0.00239550,
 -0.00389732,-0.00246707,0.00041892,-0.00009027,0.00022082,-0.00544969,
 -0.00307824,-0.00224381,-0.01712672,0.03750630,-0.00896782,-0.12879568
 ,0.03412403,-0.02252564,0.01487831,-0.01466946,0.00124758,0.00044333,-
 0.00104813,0.00042370,0.00004538,0.00010369,0.00027083,-0.00056904,0.0
 0122949,-0.00022973,0.00119748,0.00065160,0.00125510,0.00021140,-0.001
 36704,0.00187940,0.57571720,-0.00432055,-0.00056681,0.00009237,0.00107
 358,-0.00091650,0.00035358,-0.00413820,0.00066598,0.00045530,0.0050046
 8,0.00147896,0.00138633,0.03356233,-0.16904895,0.00766263,0.02001182,-
 0.03477464,0.00832060,0.00054731,-0.00070427,-0.00005656,0.00016933,0.
 00002804,-0.00030927,-0.00047984,0.00058849,-0.00006247,-0.00047966,0.
 00034686,-0.00206716,0.00160334,0.00139422,-0.00042185,0.04065357,0.48
 746821,-0.00189565,-0.00014515,0.00790024,-0.00030673,-0.00155242,-0.0
 0080987,-0.00422970,0.00151417,0.00598797,-0.00386315,0.00953348,0.003
 25579,-0.02598433,0.02304523,-0.09243202,0.00026097,-0.00192322,0.0088
 1734,0.00015592,-0.00028153,-0.00020436,0.00026324,-0.00007519,-0.0009
 4900,-0.00012898,0.00042175,-0.00011765,0.00137252,-0.00034168,-0.0036
 8349,0.00131569,-0.00133373,-0.00460677,0.09250855,0.00267993,0.485074
 95,-0.00013766,0.00088004,-0.00129681,0.00066741,0.00103421,0.00024850
 ,0.00051863,-0.00128517,-0.00069765,0.00030967,0.00253988,-0.00006747,
 -0.00038094,0.01567175,0.02236580,-0.00338029,-0.00025411,-0.00027872,
 -0.00010930,0.00033436,-0.00013086,-0.00004947,0.00002095,0.00006851,-
 0.00015079,0.00007969,0.00002262,-0.00076092,-0.00030560,0.00043569,0.
 00042475,0.00020626,0.00043823,-0.06588776,0.02636330,-0.02948034,0.22
 702894,0.00160072,-0.00108956,0.00171635,-0.00150516,-0.00097402,-0.00
 048173,-0.00040338,0.00169898,0.00064996,-0.00038294,-0.00156071,0.000
 16474,0.01444152,-0.02434980,-0.02436778,0.00029978,0.00325509,0.00007
 689,-0.00001952,-0.00001322,0.00009629,0.00000082,-0.00000007,-0.00002
 555,0.00010097,0.00000180,-0.00016284,0.00016145,0.00030305,0.00014342
 ,-0.00003382,0.00014835,-0.00060206,0.03171116,-0.09087147,-0.05703714
 ,-0.09369145,0.15130161,-0.00020008,-0.00031117,0.00034408,-0.00018002
 ,0.00064227,-0.00012355,0.00021509,-0.00039090,0.00029285,-0.00202569,
 0.00129688,-0.00077018,0.00485897,-0.00651361,0.00162438,0.00053245,0.
 00243760,-0.00149204,-0.00004267,0.00005674,0.00016185,-0.00000680,0.0
 0001396,-0.00007382,-0.00004458,0.00000924,-0.00007970,0.00010189,-0.0
 0000354,0.00052231,-0.00029097,-0.00025311,-0.00034257,0.00919786,-0.0
 9849865,-0.11482806,0.13749545,0.05975691,0.32285679,-0.00065645,0.000
 08298,0.00008380,0.00043968,0.00000910,0.00007325,0.00013089,-0.000287
 50,0.00028034,-0.00056415,-0.00032970,0.00058763,-0.00116413,-0.000185
 99,-0.00171046,0.00132845,-0.00129813,0.00058681,0.00007370,-0.0001849
 4,-0.00003744,0.00003907,-0.00002951,-0.00005026,0.00008970,-0.0001051
 5,0.00009397,0.00020908,0.00032940,-0.00015421,-0.00015069,-0.00007715
 ,-0.00024461,0.00976536,0.00261248,0.01321030,-0.16225981,0.04710559,-
 0.16010480,0.15494397,-0.00064306,0.00005637,-0.00004325,0.00041550,0.
 00032132,0.00002038,0.00003153,-0.00060918,0.00029704,-0.00011937,0.00
 076999,-0.00051594,-0.00483039,0.00039796,-0.00203902,0.00058511,-0.00
 097504,0.00004358,0.00002968,-0.00003514,0.00005059,-0.00000062,0.0000
 2599,-0.00003088,-0.00005009,0.00002960,-0.00000536,0.00028935,-0.0000
 2369,-0.00021150,-0.00002135,-0.00014023,-0.00013328,-0.00811599,-0.00
 310077,-0.02036531,0.06320241,-0.03717909,0.04868108,-0.04910097,0.039
 37639,-0.00044659,0.00058709,-0.00045419,0.00066403,0.00055176,0.00011
 192,0.00049770,-0.00082622,0.00022804,-0.00033588,-0.00001113,0.000731
 62,0.00083721,0.00279139,0.00340022,-0.00091089,-0.00081296,0.00030481
 ,-0.00000541,0.00007916,-0.00003586,0.00002259,0.00005054,0.00000645,-
 0.00001803,-0.00002302,0.00000189,0.00055062,0.00010433,-0.00039910,0.
 00021942,0.00027418,0.00011699,-0.03240042,0.00457384,-0.02958381,-0.1
 2275975,0.01643932,-0.16542846,0.14841297,-0.02029537,0.19599995,-0.00
 039333,0.00046865,0.00044237,0.00033753,0.00051541,-0.00006916,0.00057
 834,-0.00061181,0.00010620,0.00041396,0.00138122,-0.00011463,0.0099997
 4,0.01401996,-0.01452002,-0.00155668,0.00072215,0.00014750,-0.00004848
 ,0.00007351,0.00000821,-0.00000966,-0.00003305,0.00008857,0.00002195,-
 0.00009246,0.00003534,-0.00027416,-0.00000943,0.00001554,0.00017551,0.
 00013639,-0.00012535,-0.12991080,-0.09000039,0.08608262,-0.00602732,-0
 .00141743,0.00427706,-0.00185486,-0.00104408,0.00169246,0.14875867,0.0
 0014650,-0.00072547,-0.00157285,0.00012130,-0.00003614,0.00018869,0.00
 018076,-0.00047876,-0.00103499,-0.00183184,0.00133449,-0.00140005,-0.0
 1732609,-0.02405313,0.02049629,0.00308977,-0.00272451,0.00141337,0.000
 13510,-0.00028858,0.00004296,0.00002146,0.00003579,0.00021872,0.000040
 40,0.00003310,0.00005592,0.00057198,0.00079289,0.00104741,0.00002700,0
 .00034398,0.00079799,-0.07525663,-0.12372491,0.07060436,0.00442244,0.0
 0535739,0.00186890,-0.00153329,-0.00056351,0.00080853,0.09305788,0.150
 24691,0.00077113,-0.00055262,0.00005663,-0.00064710,-0.00026081,-0.000
 19323,-0.00007772,0.00060601,-0.00000258,0.00079253,-0.00007225,0.0008
 2580,0.00252577,0.00221823,-0.00124437,-0.00086466,0.00070542,-0.00016
 071,-0.00002227,0.00003882,-0.00000935,-0.00004305,-0.00003698,0.00005
 194,0.00000415,-0.00000005,-0.00000711,-0.00070815,-0.00012494,-0.0001
 3577,0.00007189,0.00013204,0.00028386,0.09578228,0.09975351,-0.1377760
 0,0.01403533,0.00917502,-0.01850627,-0.00103775,-0.00064355,-0.0003644
 8,-0.09677450,-0.09956522,0.14363546,-0.00026904,0.00046559,0.00021938
 ,0.00042084,0.00018508,0.00005676,-0.00058646,-0.00068334,-0.00000917,
 -0.00071114,0.00352645,-0.00108154,-0.01573622,-0.00345517,-0.00693551
 ,0.00097308,-0.00174280,0.00067871,0.00000984,0.00005239,-0.00003231,0
 .00006161,0.00005676,-0.00004180,-0.00014132,0.00023668,0.00000317,0.0
 0038401,-0.00000366,0.00004633,0.00104817,0.00047903,-0.00017591,-0.25
 254216,-0.03218309,-0.12928093,0.01019487,0.00203170,0.00621684,-0.000
 36981,-0.00062766,0.00397997,-0.02021041,-0.00586677,-0.01380788,0.277
 47414,0.00004526,0.00009205,-0.00009314,-0.00018398,-0.00002575,0.0000
 2513,0.00152668,0.00054183,-0.00022214,0.00115461,-0.00611283,0.000998
 29,0.03059341,0.00398057,0.01833988,0.00191074,0.00188270,0.00002528,-
 0.00004459,-0.00001672,0.00002230,-0.00005782,-0.00003242,-0.00000118,
 0.00025053,-0.00039639,0.00002320,-0.00003899,0.00019466,0.00022169,-0
 .00083521,-0.00062250,0.00003402,-0.03845676,-0.06826243,-0.02474354,-
 0.01921896,-0.00602833,-0.00879258,0.00299279,0.00164904,-0.00429143,-
 0.01716652,-0.00554955,-0.01137263,0.03752882,0.07870608,-0.00005891,0
 .00018172,0.00003586,0.00026900,0.00024552,0.00006588,-0.00017441,-0.0
 0071205,0.00017468,-0.00027285,0.00131622,0.00060503,-0.00488024,-0.00
 260248,-0.00379984,0.00016129,-0.00064273,0.00002708,0.00000285,0.0000
 2021,-0.00000366,0.00004194,0.00001416,0.00000229,-0.00001569,0.000087
 42,-0.00009959,-0.00005514,-0.00013778,-0.00013205,0.00045014,0.000586
 10,0.00030028,-0.13395160,-0.02386214,-0.12604525,-0.02039852,-0.00554
 179,-0.02415762,0.00001048,-0.00480920,-0.00463599,0.01870779,0.006029
 97,0.01354618,0.14016388,0.02982686,0.14411671\\-0.00001602,0.00000712
 ,-0.00000419,0.00001602,0.00000126,0.00000503,0.00000273,-0.00001115,0
 .00000283,-0.00001004,0.00000933,-0.00000308,0.00000655,-0.00000359,-0
 .00000275,-0.00000336,-0.00001425,0.00000029,0.00000021,-0.00000093,0.
 00000047,-0.00000087,-0.00000079,-0.00000029,0.00000094,0.00000162,-0.
 00000038,0.00000149,-0.00000006,-0.00000017,0.00000048,0.00000039,-0.0
 0000030,0.00002255,0.00004183,0.00003678,-0.00000806,-0.00001834,-0.00
 002535,0.00000580,-0.00000340,-0.00000111,-0.00000118,-0.00000266,-0.0
 0000113,-0.00001723,-0.00000638,-0.00000666\\\@


 ...THOSE SCIENCES ARE VAIN AND FULL OF ERRORS WHICH 
 ARE NOT BORN FROM EXPERIMENT, THE MOTHER OF CERTAINTY...

                          -- LEONARDO DA VINCI, 1452-1519
 Job cpu time:       0 days  0 hours  0 minutes  4.6 seconds.
 Elapsed time:       0 days  0 hours  0 minutes  4.8 seconds.
 File lengths (MBytes):  RWF=     24 Int=      0 D2E=      0 Chk=      2 Scr=      1
 Normal termination of Gaussian 16 at Sat Feb  8 10:32:33 2025.
