styrene opt freq                                                        
Freq      RHF                                                         3-21G               
Number of atoms                            I               16
Info1-9                                    I   N=           9
          40          40        1002           0           0         100
           6           1           2
Full Title                                 C   N=           2
styrene opt freq        
Route                                      C   N=           4
# opt freq hf/3-21g geom=connectivity           
Charge                                     I                0
Multiplicity                               I                1
Number of electrons                        I               56
Number of alpha electrons                  I               28
Number of beta electrons                   I               28
Number of basis functions                  I               88
Number of independent functions            I               88
Number of point charges in /Mol/           I                0
Number of translation vectors              I                0
Atomic numbers                             I   N=          16
           6           6           6           6           6           6
           1           1           1           1           1           6
           6           1           1           1
Nuclear charges                            R   N=          16
  6.00000000E+00  6.00000000E+00  6.00000000E+00  6.00000000E+00  6.00000000E+00
  6.00000000E+00  1.00000000E+00  1.00000000E+00  1.00000000E+00  1.00000000E+00
  1.00000000E+00  6.00000000E+00  6.00000000E+00  1.00000000E+00  1.00000000E+00
  1.00000000E+00
Current cartesian coordinates              R   N=          48
  3.05876479E+00  2.12387736E+00 -2.79609162E-01  4.17826165E+00 -2.36239146E-01
 -3.13682232E-01  2.70355186E+00 -2.37057953E+00  3.57358928E-02  1.28985973E-01
 -2.13872040E+00  4.10429307E-01 -1.01215847E+00  2.24801585E-01  4.43994925E-01
  4.78706774E-01  2.35015280E+00  1.00078391E-01  4.18552992E+00  3.78621906E+00
 -5.46904905E-01  6.17464108E+00 -4.14580573E-01 -6.04345683E-01  3.55864150E+00
 -4.20722058E+00  2.23742337E-02 -9.97878240E-01 -3.80340367E+00  6.88006316E-01
 -3.76422578E-01  4.18843975E+00  1.26509389E-01 -3.84593803E+00  4.85645349E-01
  7.91966270E-01 -5.55105016E+00 -3.35509833E-01 -1.34414369E+00 -4.53095500E+00
 -1.75196441E+00 -2.47190284E+00 -4.49592104E+00 -7.85999142E-01  2.30274101E+00
 -4.35238195E+00  2.36794045E+00  1.41490428E+00
Number of symbols in /Mol/                 I                0
Force Field                                I                0
Atom Types                                 C   N=          16
                                                            
                                                            
                                                            
            
Int Atom Types                             I   N=          16
           0           0           0           0           0           0
           0           0           0           0           0           0
           0           0           0           0
MM charges                                 R   N=          16
  0.00000000E+00  0.00000000E+00  0.00000000E+00  0.00000000E+00  0.00000000E+00
  0.00000000E+00  0.00000000E+00  0.00000000E+00  0.00000000E+00  0.00000000E+00
  0.00000000E+00  0.00000000E+00  0.00000000E+00  0.00000000E+00  0.00000000E+00
  0.00000000E+00
Integer atomic weights                     I   N=          16
          12          12          12          12          12          12
           1           1           1           1           1          12
          12           1           1           1
Real atomic weights                        R   N=          16
  1.20000000E+01  1.20000000E+01  1.20000000E+01  1.20000000E+01  1.20000000E+01
  1.20000000E+01  1.00782504E+00  1.00782504E+00  1.00782504E+00  1.00782504E+00
  1.00782504E+00  1.20000000E+01  1.20000000E+01  1.00782504E+00  1.00782504E+00
  1.00782504E+00
Atom fragment info                         I   N=          16
           0           0           0           0           0           0
           0           0           0           0           0           0
           0           0           0           0
Atom residue num                           I   N=          16
           0           0           0           0           0           0
           0           0           0           0           0           0
           0           0           0           0
Nuclear spins                              I   N=          16
           0           0           0           0           0           0
           1           1           1           1           1           0
           0           1           1           1
Nuclear ZEff                               R   N=          16
 -3.60000000E+00 -3.60000000E+00 -3.60000000E+00 -3.60000000E+00 -3.60000000E+00
 -3.60000000E+00 -1.00000000E+00 -1.00000000E+00 -1.00000000E+00 -1.00000000E+00
 -1.00000000E+00 -3.60000000E+00 -3.60000000E+00 -1.00000000E+00 -1.00000000E+00
 -1.00000000E+00
Nuclear ZNuc                               R   N=          16
  6.00000000E+00  6.00000000E+00  6.00000000E+00  6.00000000E+00  6.00000000E+00
  6.00000000E+00  1.00000000E+00  1.00000000E+00  1.00000000E+00  1.00000000E+00
  1.00000000E+00  6.00000000E+00  6.00000000E+00  1.00000000E+00  1.00000000E+00
  1.00000000E+00
Nuclear QMom                               R   N=          16
  0.00000000E+00  0.00000000E+00  0.00000000E+00  0.00000000E+00  0.00000000E+00
  0.00000000E+00  0.00000000E+00  0.00000000E+00  0.00000000E+00  0.00000000E+00
  0.00000000E+00  0.00000000E+00  0.00000000E+00  0.00000000E+00  0.00000000E+00
  0.00000000E+00
Nuclear GFac                               R   N=          16
  0.00000000E+00  0.00000000E+00  0.00000000E+00  0.00000000E+00  0.00000000E+00
  0.00000000E+00  2.79284600E+00  2.79284600E+00  2.79284600E+00  2.79284600E+00
  2.79284600E+00  0.00000000E+00  0.00000000E+00  2.79284600E+00  2.79284600E+00
  2.79284600E+00
MicOpt                                     I   N=          16
          -1          -1          -1          -1          -1          -1
          -1          -1          -1          -1          -1          -1
          -1          -1          -1          -1
Number of residues                         I                0
Number of secondary structures             I                0
Redundant internal dimensions              I   N=           4
          72          16          28          28
Redundant internal coordinate indices      I   N=         288
           1           2           0           0           1           6
           0           0           1           7           0           0
           2           3           0           0           2           8
           0           0           3           4           0           0
           3           9           0           0           4           5
           0           0           4          10           0           0
           5           6           0           0           5          12
           0           0           6          11           0           0
          12          13           0           0          12          15
           0           0          12          16           0           0
          13          14           0           0           2           1
           6           0           2           1           7           0
           6           1           7           0           1           2
           3           0           1           2           8           0
           3           2           8           0           2           3
           4           0           2           3           9           0
           4           3           9           0           3           4
           5           0           3           4          10           0
           5           4          10           0           4           5
           6           0           4           5          12           0
           6           5          12           0           1           6
           5           0           1           6          11           0
           5           6          11           0           5          12
          15           0           5          12          16           0
          13          12          15           0          13          12
          16           0           5          12          13        -161
          15          12          16        -131          12          13
          14        -151           5          12          13        -162
          15          12          16        -132          12          13
          14        -152           6           1           2           3
           6           1           2           8           7           1
           2           3           7           1           2           8
           2           1           6           5           2           1
           6          11           7           1           6           5
           7           1           6          11           1           2
           3           4           1           2           3           9
           8           2           3           4           8           2
           3           9           2           3           4           5
           2           3           4          10           9           3
           4           5           9           3           4          10
           3           4           5           6           3           4
           5          12          10           4           5           6
          10           4           5          12           4           5
           6           1           4           5           6          11
          12           5           6           1          12           5
           6          11           4           5          12          15
           4           5          12          16           6           5
          12          15           6           5          12          16
Redundant internal coordinates             R   N=          72
  2.61239050E+00  2.61764447E+00  2.02593845E+00  2.61768426E+00  2.02529547E+00
  2.61199987E+00  2.02598301E+00  2.62479969E+00  2.02929602E+00  2.61879276E+00
  2.86695485E+00  2.02762021E+00  2.85388665E+00  2.07894154E+00  2.04635580E+00
  2.07816708E+00  2.09713032E+00  2.09582066E+00  2.09023432E+00  2.08685459E+00
  2.09883543E+00  2.09749286E+00  2.09677803E+00  2.09497161E+00  2.09142996E+00
  2.10631766E+00  2.08764623E+00  2.08920779E+00  2.07328455E+00  2.10970822E+00
  2.09995483E+00  2.10599808E+00  2.08972036E+00  2.08746627E+00  1.91939712E+00
  1.94470641E+00  1.75293403E+00  1.92266179E+00  3.86736820E+00  3.67559582E+00
  2.44171229E+00  2.32668163E+00  1.93224409E+00  4.60638157E+00 -7.02698665E-04
 -3.13993369E+00  3.14074009E+00  1.50909481E-03 -2.55038744E-03  3.14021610E+00
  3.13919165E+00 -1.22716694E-03  2.37741702E-03 -3.13557649E+00 -3.14157505E+00
  3.65635503E-03 -8.31324508E-04 -3.13679808E+00  3.13712999E+00  1.16323515E-03
 -2.36769497E-03  3.11586724E+00  3.13359406E+00 -3.13563131E-02  4.05356129E-03
 -3.13871142E+00 -3.11431573E+00  2.61045890E-02  7.66834906E-01  2.79813379E+00
 -2.39847148E+00 -3.67172595E-01
ZRed-IntVec                                I   N=          72
           0           0           0           0           0           0
           0           0           0           0           0           0
           0           0           0           0           0           0
           0           0           0           0           0           0
           0           0           0           0           0           0
           0           0           0           0           0           0
           0           0           0           0           0           0
           0           0           0           0           0           0
           0           0           0           0           0           0
           0           0           0           0           0           0
           0           0           0           0           0           0
           0           0           0           0           0           0
ZRed-FPVec                                 R   N=          72
  0.00000000E+00  0.00000000E+00  0.00000000E+00  0.00000000E+00  0.00000000E+00
  0.00000000E+00  0.00000000E+00  0.00000000E+00  0.00000000E+00  0.00000000E+00
  0.00000000E+00  0.00000000E+00  0.00000000E+00  0.00000000E+00  0.00000000E+00
  0.00000000E+00  0.00000000E+00  0.00000000E+00  0.00000000E+00  0.00000000E+00
  0.00000000E+00  0.00000000E+00  0.00000000E+00  0.00000000E+00  0.00000000E+00
  0.00000000E+00  0.00000000E+00  0.00000000E+00  0.00000000E+00  0.00000000E+00
  0.00000000E+00  0.00000000E+00  0.00000000E+00  0.00000000E+00  0.00000000E+00
  0.00000000E+00  0.00000000E+00  0.00000000E+00  0.00000000E+00  0.00000000E+00
  0.00000000E+00  0.00000000E+00  0.00000000E+00  0.00000000E+00  0.00000000E+00
  0.00000000E+00  0.00000000E+00  0.00000000E+00  0.00000000E+00  0.00000000E+00
  0.00000000E+00  0.00000000E+00  0.00000000E+00  0.00000000E+00  0.00000000E+00
  0.00000000E+00  0.00000000E+00  0.00000000E+00  0.00000000E+00  0.00000000E+00
  0.00000000E+00  0.00000000E+00  0.00000000E+00  0.00000000E+00  0.00000000E+00
  0.00000000E+00  0.00000000E+00  0.00000000E+00  0.00000000E+00  0.00000000E+00
  0.00000000E+00  0.00000000E+00
ZRed-Constraint1                           R   N=          72
  2.61239050E+00  2.61764447E+00  2.02593845E+00  2.61768426E+00  2.02529547E+00
  2.61199987E+00  2.02598301E+00  2.62479969E+00  2.02929602E+00  2.61879276E+00
  2.86695485E+00  2.02762021E+00  2.85388665E+00  2.07894154E+00  2.04635580E+00
  2.07816708E+00  2.09713032E+00  2.09582066E+00  2.09023432E+00  2.08685459E+00
  2.09883543E+00  2.09749286E+00  2.09677803E+00  2.09497161E+00  2.09142996E+00
  2.10631766E+00  2.08764623E+00  2.08920779E+00  2.07328455E+00  2.10970822E+00
  2.09995483E+00  2.10599808E+00  2.08972036E+00  2.08746627E+00  1.91939712E+00
  1.94470641E+00  1.75293403E+00  1.92266179E+00  3.86736820E+00  3.67559582E+00
  2.44171229E+00  2.32668163E+00  1.93224409E+00  4.60638157E+00 -7.02698665E-04
 -3.13993369E+00  3.14074009E+00  1.50909481E-03 -2.55038744E-03  3.14021610E+00
  3.13919165E+00 -1.22716694E-03  2.37741702E-03 -3.13557649E+00 -3.14157505E+00
  3.65635503E-03 -8.31324508E-04 -3.13679808E+00  3.13712999E+00  1.16323515E-03
 -2.36769497E-03  3.11586724E+00  3.13359406E+00 -3.13563131E-02  4.05356129E-03
 -3.13871142E+00 -3.11431573E+00  2.61045890E-02  7.66834906E-01  2.79813379E+00
 -2.39847148E+00 -3.67172595E-01
ZRed-Constraint2                           R   N=          72
  2.63647030E+00  2.63584493E+00  2.07796233E+00  2.63562382E+00  2.07804735E+00
  2.63697488E+00  2.07809438E+00  2.63583740E+00  2.07809423E+00  2.63642862E+00
  2.91017823E+00  2.07795046E+00  2.56095684E+00  2.02200695E+00  2.02200695E+00
  2.02200696E+00  2.09436817E+00  2.09434664E+00  2.09447050E+00  2.09454576E+00
  2.09405948E+00  2.09457924E+00  2.09429326E+00  2.09461842E+00  2.09427359E+00
  2.09429025E+00  2.09406597E+00  2.09482897E+00  2.09447721E+00  2.09459308E+00
  2.09411499E+00  2.09439550E+00  2.09453468E+00  2.09425504E+00  1.57079633E+00
  1.57079632E+00  1.57079633E+00  1.57079633E+00  3.14159265E+00  3.14159266E+00
  3.14159260E+00  3.14159265E+00  3.14159265E+00  3.14159258E+00  5.64580693E-04
  3.14077668E+00 -3.14112012E+00 -9.08026013E-04  2.59777937E-04  3.14140373E+00
 -3.14124082E+00 -9.68701602E-05 -9.92101173E-04  3.14092685E+00 -3.14120378E+00
  7.15165115E-04  5.95408499E-04 -3.14153045E+00 -3.14132347E+00 -2.64028809E-04
  2.28817625E-04 -3.14158417E+00 -3.14083039E+00  5.41927375E-04 -6.56396155E-04
  3.14138489E+00  3.14115653E+00  1.25074723E-05 -7.13541532E-01  2.42805114E+00
  2.42783083E+00 -7.13761804E-01
SymInf integers                            I   N=          26
           1           1           1           1           1           0
           0           0           0           0           0           0
           0           0           0           0           0           0
           0           0           0           0           0           0
           0           0
RotTr to input orientation                 R   N=          12
  4.44972318E-01 -8.95007301E-01  3.10091598E-02 -8.62774817E-01 -4.37714051E-01
 -2.53033643E-01  2.40040103E-01  8.58390447E-02 -9.66960396E-01  3.89611967E-01
  4.82676494E-01  2.30017282E+00
Number of contracted shells                I               40
Number of primitive shells                 I               72
Pure/Cartesian d shells                    I                1
Pure/Cartesian f shells                    I                0
Highest angular momentum                   I                1
Largest degree of contraction              I                3
Shell types                                I   N=          40
           0          -1          -1           0          -1          -1
           0          -1          -1           0          -1          -1
           0          -1          -1           0          -1          -1
           0           0           0           0           0           0
           0           0           0           0           0          -1
          -1           0          -1          -1           0           0
           0           0           0           0
Number of primitives per shell             I   N=          40
           3           2           1           3           2           1
           3           2           1           3           2           1
           3           2           1           3           2           1
           2           1           2           1           2           1
           2           1           2           1           3           2
           1           3           2           1           2           1
           2           1           2           1
Shell to atom map                          I   N=          40
           1           1           1           2           2           2
           3           3           3           4           4           4
           5           5           5           6           6           6
           7           7           8           8           9           9
          10          10          11          11          12          12
          12          13          13          13          14          14
          15          15          16          16
Primitive exponents                        R   N=          72
  1.72256000E+02  2.59109000E+01  5.53335000E+00  3.66498000E+00  7.70545000E-01
  1.95857000E-01  1.72256000E+02  2.59109000E+01  5.53335000E+00  3.66498000E+00
  7.70545000E-01  1.95857000E-01  1.72256000E+02  2.59109000E+01  5.53335000E+00
  3.66498000E+00  7.70545000E-01  1.95857000E-01  1.72256000E+02  2.59109000E+01
  5.53335000E+00  3.66498000E+00  7.70545000E-01  1.95857000E-01  1.72256000E+02
  2.59109000E+01  5.53335000E+00  3.66498000E+00  7.70545000E-01  1.95857000E-01
  1.72256000E+02  2.59109000E+01  5.53335000E+00  3.66498000E+00  7.70545000E-01
  1.95857000E-01  5.44717800E+00  8.24547240E-01  1.83191580E-01  5.44717800E+00
  8.24547240E-01  1.83191580E-01  5.44717800E+00  8.24547240E-01  1.83191580E-01
  5.44717800E+00  8.24547240E-01  1.83191580E-01  5.44717800E+00  8.24547240E-01
  1.83191580E-01  1.72256000E+02  2.59109000E+01  5.53335000E+00  3.66498000E+00
  7.70545000E-01  1.95857000E-01  1.72256000E+02  2.59109000E+01  5.53335000E+00
  3.66498000E+00  7.70545000E-01  1.95857000E-01  5.44717800E+00  8.24547240E-01
  1.83191580E-01  5.44717800E+00  8.24547240E-01  1.83191580E-01  5.44717800E+00
  8.24547240E-01  1.83191580E-01
Contraction coefficients                   R   N=          72
  6.17669074E-02  3.58794043E-01  7.00713084E-01 -3.95895162E-01  1.21583436E+00
  1.00000000E+00  6.17669074E-02  3.58794043E-01  7.00713084E-01 -3.95895162E-01
  1.21583436E+00  1.00000000E+00  6.17669074E-02  3.58794043E-01  7.00713084E-01
 -3.95895162E-01  1.21583436E+00  1.00000000E+00  6.17669074E-02  3.58794043E-01
  7.00713084E-01 -3.95895162E-01  1.21583436E+00  1.00000000E+00  6.17669074E-02
  3.58794043E-01  7.00713084E-01 -3.95895162E-01  1.21583436E+00  1.00000000E+00
  6.17669074E-02  3.58794043E-01  7.00713084E-01 -3.95895162E-01  1.21583436E+00
  1.00000000E+00  1.56284979E-01  9.04690877E-01  1.00000000E+00  1.56284979E-01
  9.04690877E-01  1.00000000E+00  1.56284979E-01  9.04690877E-01  1.00000000E+00
  1.56284979E-01  9.04690877E-01  1.00000000E+00  1.56284979E-01  9.04690877E-01
  1.00000000E+00  6.17669074E-02  3.58794043E-01  7.00713084E-01 -3.95895162E-01
  1.21583436E+00  1.00000000E+00  6.17669074E-02  3.58794043E-01  7.00713084E-01
 -3.95895162E-01  1.21583436E+00  1.00000000E+00  1.56284979E-01  9.04690877E-01
  1.00000000E+00  1.56284979E-01  9.04690877E-01  1.00000000E+00  1.56284979E-01
  9.04690877E-01  1.00000000E+00
P(S=P) Contraction coefficients            R   N=          72
  0.00000000E+00  0.00000000E+00  0.00000000E+00  2.36459947E-01  8.60618806E-01
  1.00000000E+00  0.00000000E+00  0.00000000E+00  0.00000000E+00  2.36459947E-01
  8.60618806E-01  1.00000000E+00  0.00000000E+00  0.00000000E+00  0.00000000E+00
  2.36459947E-01  8.60618806E-01  1.00000000E+00  0.00000000E+00  0.00000000E+00
  0.00000000E+00  2.36459947E-01  8.60618806E-01  1.00000000E+00  0.00000000E+00
  0.00000000E+00  0.00000000E+00  2.36459947E-01  8.60618806E-01  1.00000000E+00
  0.00000000E+00  0.00000000E+00  0.00000000E+00  2.36459947E-01  8.60618806E-01
  1.00000000E+00  0.00000000E+00  0.00000000E+00  0.00000000E+00  0.00000000E+00
  0.00000000E+00  0.00000000E+00  0.00000000E+00  0.00000000E+00  0.00000000E+00
  0.00000000E+00  0.00000000E+00  0.00000000E+00  0.00000000E+00  0.00000000E+00
  0.00000000E+00  0.00000000E+00  0.00000000E+00  0.00000000E+00  2.36459947E-01
  8.60618806E-01  1.00000000E+00  0.00000000E+00  0.00000000E+00  0.00000000E+00
  2.36459947E-01  8.60618806E-01  1.00000000E+00  0.00000000E+00  0.00000000E+00
  0.00000000E+00  0.00000000E+00  0.00000000E+00  0.00000000E+00  0.00000000E+00
  0.00000000E+00  0.00000000E+00
Coordinates of each shell                  R   N=         120
  3.05876479E+00  2.12387736E+00 -2.79609162E-01  3.05876479E+00  2.12387736E+00
 -2.79609162E-01  3.05876479E+00  2.12387736E+00 -2.79609162E-01  4.17826165E+00
 -2.36239146E-01 -3.13682232E-01  4.17826165E+00 -2.36239146E-01 -3.13682232E-01
  4.17826165E+00 -2.36239146E-01 -3.13682232E-01  2.70355186E+00 -2.37057953E+00
  3.57358928E-02  2.70355186E+00 -2.37057953E+00  3.57358928E-02  2.70355186E+00
 -2.37057953E+00  3.57358928E-02  1.28985973E-01 -2.13872040E+00  4.10429307E-01
  1.28985973E-01 -2.13872040E+00  4.10429307E-01  1.28985973E-01 -2.13872040E+00
  4.10429307E-01 -1.01215847E+00  2.24801585E-01  4.43994925E-01 -1.01215847E+00
  2.24801585E-01  4.43994925E-01 -1.01215847E+00  2.24801585E-01  4.43994925E-01
  4.78706774E-01  2.35015280E+00  1.00078391E-01  4.78706774E-01  2.35015280E+00
  1.00078391E-01  4.78706774E-01  2.35015280E+00  1.00078391E-01  4.18552992E+00
  3.78621906E+00 -5.46904905E-01  4.18552992E+00  3.78621906E+00 -5.46904905E-01
  6.17464108E+00 -4.14580573E-01 -6.04345683E-01  6.17464108E+00 -4.14580573E-01
 -6.04345683E-01  3.55864150E+00 -4.20722058E+00  2.23742337E-02  3.55864150E+00
 -4.20722058E+00  2.23742337E-02 -9.97878240E-01 -3.80340367E+00  6.88006316E-01
 -9.97878240E-01 -3.80340367E+00  6.88006316E-01 -3.76422578E-01  4.18843975E+00
  1.26509389E-01 -3.76422578E-01  4.18843975E+00  1.26509389E-01 -3.84593803E+00
  4.85645349E-01  7.91966270E-01 -3.84593803E+00  4.85645349E-01  7.91966270E-01
 -3.84593803E+00  4.85645349E-01  7.91966270E-01 -5.55105016E+00 -3.35509833E-01
 -1.34414369E+00 -5.55105016E+00 -3.35509833E-01 -1.34414369E+00 -5.55105016E+00
 -3.35509833E-01 -1.34414369E+00 -4.53095500E+00 -1.75196441E+00 -2.47190284E+00
 -4.53095500E+00 -1.75196441E+00 -2.47190284E+00 -4.49592104E+00 -7.85999142E-01
  2.30274101E+00 -4.49592104E+00 -7.85999142E-01  2.30274101E+00 -4.35238195E+00
  2.36794045E+00  1.41490428E+00 -4.35238195E+00  2.36794045E+00  1.41490428E+00
Num ILSW                                   I              100
ILSW                                       I   N=         100
           0           1           0           0           2           0
           0           0           0           0           0          -1
           5           0           0           0           2           0
           0           0           1           0           1           0
           1           0           0           0           0           0
           0           0      100000           0          -1           0
           0           0           0           0           0           0
           0           0           0           1           0           0
           0 -2000000000           1           0           0           0
           0           0           4          52           0           0
           0           0           0           0           0           0
           0           0           0           0           0           1
           0           0           0           0           0           0
           0           0           0           0           0           0
           0           0           0           0           0           0
           0           0           0           0           0           0
           0           0           0           0
Num RLSW                                   I               52
RLSW                                       R   N=          52
  1.00000000E+00  1.00000000E+00  1.00000000E+00  1.00000000E+00  1.00000000E+00
  0.00000000E+00  0.00000000E+00  1.00000000E+00  0.00000000E+00  0.00000000E+00
  0.00000000E+00  0.00000000E+00  1.00000000E+00  0.00000000E+00  0.00000000E+00
  0.00000000E+00  0.00000000E+00  1.00000000E+00  0.00000000E+00  0.00000000E+00
  0.00000000E+00  0.00000000E+00  1.00000000E+00  0.00000000E+00  0.00000000E+00
  0.00000000E+00  0.00000000E+00  1.00000000E+00  0.00000000E+00  0.00000000E+00
  0.00000000E+00  0.00000000E+00  1.00000000E+00  0.00000000E+00  0.00000000E+00
  0.00000000E+00  0.00000000E+00  0.00000000E+00  1.00000000E+00  1.00000000E+00
  0.00000000E+00  1.00000000E+00  0.00000000E+00  0.00000000E+00  0.00000000E+00
  0.00000000E+00  0.00000000E+00  0.00000000E+00  0.00000000E+00  0.00000000E+00
  0.00000000E+00  0.00000000E+00
MxBond                                     I                4
NBond                                      I   N=          16
           3           3           3           3           3           3
           1           1           1           1           1           4
           2           1           1           1
IBond                                      I   N=          64
           2           6           7           0           1           3
           8           0           2           4           9           0
           3           5          10           0           4           6
          12           0           1           5          11           0
           1           0           0           0           2           0
           0           0           3           0           0           0
           4           0           0           0           6           0
           0           0           5          13          15          16
          12          14           0           0          13           0
           0           0          12           0           0           0
          12           0           0           0
RBond                                      R   N=          64
  1.50000000E+00  1.50000000E+00  1.00000000E+00  0.00000000E+00  1.50000000E+00
  1.50000000E+00  1.00000000E+00  0.00000000E+00  1.50000000E+00  1.50000000E+00
  1.00000000E+00  0.00000000E+00  1.50000000E+00  1.50000000E+00  1.00000000E+00
  0.00000000E+00  1.50000000E+00  1.50000000E+00  1.00000000E+00  0.00000000E+00
  1.50000000E+00  1.50000000E+00  1.00000000E+00  0.00000000E+00  1.00000000E+00
  0.00000000E+00  0.00000000E+00  0.00000000E+00  1.00000000E+00  0.00000000E+00
  0.00000000E+00  0.00000000E+00  1.00000000E+00  0.00000000E+00  0.00000000E+00
  0.00000000E+00  1.00000000E+00  0.00000000E+00  0.00000000E+00  0.00000000E+00
  1.00000000E+00  0.00000000E+00  0.00000000E+00  0.00000000E+00  1.00000000E+00
  2.00000000E+00  1.00000000E+00  1.00000000E+00  2.00000000E+00  1.00000000E+00
  0.00000000E+00  0.00000000E+00  1.00000000E+00  0.00000000E+00  0.00000000E+00
  0.00000000E+00  1.00000000E+00  0.00000000E+00  0.00000000E+00  0.00000000E+00
  1.00000000E+00  0.00000000E+00  0.00000000E+00  0.00000000E+00
Virial Ratio                               R      2.001586574836676E+00
SCF Energy                                 R     -3.057519877232953E+02
Total Energy                               R     -3.057519877232953E+02
RMS Force                                  R      1.147903725262105E-05
RMS Density                                R      9.604724691775814E-10
NImag                                      I                0
Job Status                                 I                1
Nuclear derivative order                   I                2
External E-field                           R   N=          35
  0.00000000E+00  0.00000000E+00  0.00000000E+00  0.00000000E+00  0.00000000E+00
  0.00000000E+00  0.00000000E+00  0.00000000E+00  0.00000000E+00  0.00000000E+00
  0.00000000E+00  0.00000000E+00  0.00000000E+00  0.00000000E+00  0.00000000E+00
  0.00000000E+00  0.00000000E+00  0.00000000E+00  0.00000000E+00  0.00000000E+00